# Region type : patch jet1
# Faces         : 17
# Area          : 3.90575109e-04
# Scale factor  : 1.00000000e+00
# Time          	sum(phi)
0.05            	0.00000000e+00
