/*--------------------------------*- C++ -*----------------------------------*\
| =========                 |                                                 |
| \\      /  F ield         | OpenFOAM: The Open Source CFD Toolbox           |
|  \\    /   O peration     | Version:  2206                                  |
|   \\  /    A nd           | Website:  www.openfoam.com                      |
|    \\/     M anipulation  |                                                 |
\*---------------------------------------------------------------------------*/
FoamFile
{
    version     2.0;
    format      ascii;
    arch        "LSB;label=32;scalar=64";
    class       volVectorField;
    location    "1";
    object      cellDisplacement;
}
// * * * * * * * * * * * * * * * * * * * * * * * * * * * * * * * * * * * * * //

dimensions      [0 1 0 0 0 0 0];

internalField   nonuniform List<vector> 
18114
(
(-0 1.509950165250676e-10 0)
(-0 4.492912846466956e-10 0)
(-0 7.439771386473659e-10 0)
(-0 1.035140158905231e-09 0)
(-0 1.32284858985315e-09 0)
(-0 1.607159051318755e-09 0)
(-0 1.888114695055891e-09 0)
(-0 2.16574249970622e-09 0)
(-0 2.440050378987618e-09 0)
(-0 2.711024313470231e-09 0)
(-0 2.978625587664823e-09 0)
(-0 3.242788175023211e-09 0)
(-0 3.503416301562705e-09 0)
(-0 3.760382216506433e-09 0)
(-0 4.013524199824313e-09 0)
(-0 4.262644839694445e-09 0)
(-0 4.507509616670366e-09 0)
(-0 4.747845835175709e-09 0)
(-0 4.983341946417891e-09 0)
(-0 5.213647309557201e-09 0)
(-0 5.438372439640243e-09 0)
(-0 5.657089791035657e-09 0)
(-0 5.869335123571921e-09 0)
(-0 6.074609494942177e-09 0)
(-0 6.272381916937311e-09 0)
(-0 6.462092704505819e-09 0)
(-0 6.643157535445251e-09 0)
(-0 6.814972224782203e-09 0)
(-0 6.976918201909061e-09 0)
(-0 7.128368660852535e-09 0)
(-0 7.268695335551313e-09 0)
(-0 7.397275833956766e-09 0)
(-0 7.513501448816231e-09 0)
(-0 7.616785350945505e-09 0)
(-0 7.706571063133804e-09 0)
(-0 7.782341101134671e-09 0)
(-0 7.843625599943079e-09 0)
(-0 7.890010355572233e-09 0)
(-0 7.921141730174257e-09 0)
(-0 7.93671597250372e-09 0)
(-0 4.493080001938389e-10 0)
(-0 1.336639551622642e-09 0)
(-0 2.212886703197502e-09 0)
(-0 3.078291421907911e-09 0)
(-0 3.933049460621833e-09 0)
(-0 4.777325844737127e-09 0)
(-0 5.611247033405571e-09 0)
(-0 6.434892380512293e-09 0)
(-0 7.248285521718539e-09 0)
(-0 8.051385983111484e-09 0)
(-0 8.844081165858746e-09 0)
(-0 9.626178805329434e-09 0)
(-0 1.039739998427348e-08 0)
(-0 1.115737277739333e-08 0)
(-0 1.190562661010089e-08 0)
(-0 1.264158742330483e-08 0)
(-0 1.336457374649778e-08 0)
(-0 1.407379379179724e-08 0)
(-0 1.476834369084593e-08 0)
(-0 1.544720700359007e-08 0)
(-0 1.610925563198762e-08 0)
(-0 1.6753252271682e-08 0)
(-0 1.737785452969424e-08 0)
(-0 1.798162082537918e-08 0)
(-0 1.856301817454873e-08 0)
(-0 1.912043193229153e-08 0)
(-0 1.965217753844629e-08 0)
(-0 2.015651427121079e-08 0)
(-0 2.063166096982339e-08 0)
(-0 2.107581363822664e-08 0)
(-0 2.148716479055677e-08 0)
(-0 2.186392434974988e-08 0)
(-0 2.220434186737307e-08 0)
(-0 2.250672980257889e-08 0)
(-0 2.276948758914655e-08 0)
(-0 2.299112624142095e-08 0)
(-0 2.317029331059052e-08 0)
(-0 2.330579811352882e-08 0)
(-0 2.339663745310747e-08 0)
(-0 2.34420236296918e-08 0)
(-0 7.440457834611933e-10 0)
(-0 2.213008641869504e-09 0)
(-0 3.6631596520203e-09 0)
(-0 5.094885780987466e-09 0)
(-0 6.508508524910175e-09 0)
(-0 7.90430232944124e-09 0)
(-0 9.28247971201999e-09 0)
(-0 1.064317651841325e-08 0)
(-0 1.198643756513225e-08 0)
(-0 1.33122028614264e-08 0)
(-0 1.462029455267188e-08 0)
(-0 1.591040470084746e-08 0)
(-0 1.718208401125397e-08 0)
(-0 1.843473162014195e-08 0)
(-0 1.966758607025072e-08 0)
(-0 2.087971761709955e-08 0)
(-0 2.207002202593185e-08 0)
(-0 2.323721603577713e-08 0)
(-0 2.437983468161308e-08 0)
(-0 2.549623067664606e-08 0)
(-0 2.658457606279965e-08 0)
(-0 2.764286633714874e-08 0)
(-0 2.866892725382844e-08 0)
(-0 2.966042448353591e-08 0)
(-0 3.061487628503461e-08 0)
(-0 3.152966930426506e-08 0)
(-0 3.24020775665159e-08 0)
(-0 3.322928466601163e-08 0)
(-0 3.400840908651954e-08 0)
(-0 3.47365325085528e-08 0)
(-0 3.541073087714418e-08 0)
(-0 3.602810792434315e-08 0)
(-0 3.658583077003685e-08 0)
(-0 3.70811671740145e-08 0)
(-0 3.751152399736838e-08 0)
(-0 3.78744864796021e-08 0)
(-0 3.816785810533519e-08 0)
(-0 3.838970126301018e-08 0)
(-0 3.853838000809963e-08 0)
(-0 3.861260902507958e-08 0)
(-0 1.035314069323839e-09 0)
(-0 3.078694454245656e-09 0)
(-0 5.09527226587496e-09 0)
(-0 7.08558611804172e-09 0)
(-0 9.050090083634277e-09 0)
(-0 1.098917575555274e-08 0)
(-0 1.290315040542257e-08 0)
(-0 1.479221603677639e-08 0)
(-0 1.665644935796277e-08 0)
(-0 1.849578276214093e-08 0)
(-0 2.030998641776163e-08 0)
(-0 2.209865158148912e-08 0)
(-0 2.386117525768546e-08 0)
(-0 2.559674634589004e-08 0)
(-0 2.730433343904161e-08 0)
(-0 2.898267445873685e-08 0)
(-0 3.063026833785607e-08 0)
(-0 3.22453689836754e-08 0)
(-0 3.38259817743734e-08 0)
(-0 3.536986285684614e-08 0)
(-0 3.687452152207025e-08 0)
(-0 3.833722593398593e-08 0)
(-0 3.975501247710911e-08 0)
(-0 4.112469896502429e-08 0)
(-0 4.244290191502799e-08 0)
(-0 4.370605804241728e-08 0)
(-0 4.491045006074798e-08 0)
(-0 4.605223679230389e-08 0)
(-0 4.712748749750298e-08 0)
(-0 4.813222022596743e-08 0)
(-0 4.906244388003302e-08 0)
(-0 4.991420357003052e-08 0)
(-0 5.068362873856984e-08 0)
(-0 5.136698345013123e-08 0)
(-0 5.196071819882054e-08 0)
(-0 5.246152260436548e-08 0)
(-0 5.286637847660131e-08 0)
(-0 5.317261296011322e-08 0)
(-0 5.33779517349415e-08 0)
(-0 5.348057126171243e-08 0)
(-0 1.323198747944468e-09 0)
(-0 3.933945209639646e-09 0)
(-0 6.509632859649395e-09 0)
(-0 9.050967196306972e-09 0)
(-0 1.155854927424207e-08 0)
(-0 1.403290210043283e-08 0)
(-0 1.647444224257417e-08 0)
(-0 1.8883452899298e-08 0)
(-0 2.126005837942682e-08 0)
(-0 2.360420001751701e-08 0)
(-0 2.591561359764294e-08 0)
(-0 2.819380838859502e-08 0)
(-0 3.043804792193162e-08 0)
(-0 3.264733267351087e-08 0)
(-0 3.482038483992549e-08 0)
(-0 3.695563543298898e-08 0)
(-0 3.905121394674978e-08 0)
(-0 4.110494088082503e-08 0)
(-0 4.311432342923684e-08 0)
(-0 4.507655466337464e-08 0)
(-0 4.698851654892667e-08 0)
(-0 4.884678713730437e-08 0)
(-0 5.064765225984021e-08 0)
(-0 5.238712202562454e-08 0)
(-0 5.406095237925594e-08 0)
(-0 5.56646719115338e-08 0)
(-0 5.719361403345057e-08 0)
(-0 5.864295452201917e-08 0)
(-0 6.00077543270709e-08 0)
(-0 6.128300739433621e-08 0)
(-0 6.246369311690032e-08 0)
(-0 6.354483288148289e-08 0)
(-0 6.452155003714177e-08 0)
(-0 6.538913249310172e-08 0)
(-0 6.614309706221814e-08 0)
(-0 6.67792546187505e-08 0)
(-0 6.729377513278042e-08 0)
(-0 6.768325161643851e-08 0)
(-0 6.794476164623084e-08 0)
(-0 6.807592249222261e-08 0)
(-0 1.607773591706454e-09 0)
(-0 4.778976892946725e-09 0)
(-0 7.906600140153457e-09 0)
(-0 1.099153765482787e-08 0)
(-0 1.403455841480874e-08 0)
(-0 1.703633713471199e-08 0)
(-0 1.999741974324969e-08 0)
(-0 2.291819076160868e-08 0)
(-0 2.579884251866701e-08 0)
(-0 2.863934620513134e-08 0)
(-0 3.143942481975015e-08 0)
(-0 3.419852810342388e-08 0)
(-0 3.691580959664335e-08 0)
(-0 3.959010599499421e-08 0)
(-0 4.221991901727665e-08 0)
(-0 4.48034000407023e-08 0)
(-0 4.733833779652306e-08 0)
(-0 4.982214945569448e-08 0)
(-0 5.225187546577006e-08 0)
(-0 5.462417852488617e-08 0)
(-0 5.693534709383018e-08 0)
(-0 5.91813038500528e-08 0)
(-0 6.135761947524419e-08 0)
(-0 6.345953213794814e-08 0)
(-0 6.548197298211674e-08 0)
(-0 6.741959785950404e-08 0)
(-0 6.926682544711797e-08 0)
(-0 7.101788177054058e-08 0)
(-0 7.26668510111539e-08 0)
(-0 7.420773231335029e-08 0)
(-0 7.563450213187032e-08 0)
(-0 7.694118147681492e-08 0)
(-0 7.81219072339315e-08 0)
(-0 7.917100657110626e-08 0)
(-0 8.008307329888918e-08 0)
(-0 8.085304493858571e-08 0)
(-0 8.147627915192691e-08 0)
(-0 8.194862801712883e-08 0)
(-0 8.226650804375978e-08 0)
(-0 8.242696069010036e-08 0)
(-0 1.88909839869275e-09 0)
(-0 5.613965375400386e-09 0)
(-0 9.28646826348189e-09 0)
(-0 1.290771807499058e-08 0)
(-0 1.647867849060516e-08 0)
(-0 2.000020174482879e-08 0)
(-0 2.347298833071398e-08 0)
(-0 2.689754898221207e-08 0)
(-0 3.027416887382126e-08 0)
(-0 3.360287402916876e-08 0)
(-0 3.688339998040798e-08 0)
(-0 4.011516276846175e-08 0)
(-0 4.329723242153486e-08 0)
(-0 4.642830909695087e-08 0)
(-0 4.950670211945946e-08 0)
(-0 5.253031219713738e-08 0)
(-0 5.549661714270502e-08 0)
(-0 5.840266147180194e-08 0)
(-0 6.124505028836858e-08 0)
(-0 6.401994789823632e-08 0)
(-0 6.672308161243615e-08 0)
(-0 6.934975120842276e-08 0)
(-0 7.189484450702106e-08 0)
(-0 7.435285949206687e-08 0)
(-0 7.671793334523899e-08 0)
(-0 7.898387868779917e-08 0)
(-0 8.114422721197339e-08 0)
(-0 8.319228074687634e-08 0)
(-0 8.512116963815988e-08 0)
(-0 8.692391812991757e-08 0)
(-0 8.859351622704846e-08 0)
(-0 9.012299729394633e-08 0)
(-0 9.150552042084577e-08 0)
(-0 9.273445637368303e-08 0)
(-0 9.380347574768031e-08 0)
(-0 9.470663777503702e-08 0)
(-0 9.543847808183988e-08 0)
(-0 9.599409347375855e-08 0)
(-0 9.636922121316934e-08 0)
(-0 9.656030689130271e-08 0)
(-0 2.167216277573366e-09 0)
(-0 6.439037845496568e-09 0)
(-0 1.064945204103624e-08 0)
(-0 1.479981996135322e-08 0)
(-0 1.889133212781708e-08 0)
(-0 2.292504918746442e-08 0)
(-0 2.690185615841239e-08 0)
(-0 3.082241930193475e-08 0)
(-0 3.46871455593446e-08 0)
(-0 3.849614453627541e-08 0)
(-0 4.224919306630454e-08 0)
(-0 4.594570243756879e-08 0)
(-0 4.958468841941131e-08 0)
(-0 5.316474428091646e-08 0)
(-0 5.668401704901357e-08 0)
(-0 6.01401873098251e-08 0)
(-0 6.353045291175704e-08 0)
(-0 6.685151698070126e-08 0)
(-0 7.009958070432903e-08 0)
(-0 7.327034138104884e-08 0)
(-0 7.635899625656468e-08 0)
(-0 7.936025268348423e-08 0)
(-0 8.226834513318777e-08 0)
(-0 8.507705956011142e-08 0)
(-0 8.777976556278181e-08 0)
(-0 9.036945669978283e-08 0)
(-0 9.283879919959868e-08 0)
(-0 9.518018914943758e-08 0)
(-0 9.738581805996801e-08 0)
(-0 9.944774648288332e-08 0)
(-0 1.013579851115513e-07 0)
(-0 1.031085825297585e-07 0)
(-0 1.046917185006295e-07 0)
(-0 1.060998014202739e-07 0)
(-0 1.073255683123795e-07 0)
(-0 1.083621855219367e-07 0)
(-0 1.092033480762847e-07 0)
(-0 1.098433754593426e-07 0)
(-0 1.102773009503847e-07 0)
(-0 1.105009480829832e-07 0)
(-0 2.442150748700336e-09 0)
(-0 7.254264174984253e-09 0)
(-0 1.199567254641668e-08 0)
(-0 1.66680256632107e-08 0)
(-0 2.127277800339506e-08 0)
(-0 2.581123421408802e-08 0)
(-0 3.02844981934362e-08 0)
(-0 3.469342513376919e-08 0)
(-0 3.903857645157425e-08 0)
(-0 4.332017757291805e-08 0)
(-0 4.753807859342606e-08 0)
(-0 5.169171788727907e-08 0)
(-0 5.578008879856294e-08 0)
(-0 5.980170960983229e-08 0)
(-0 6.375459704609618e-08 0)
(-0 6.763624363653705e-08 0)
(-0 7.144359931968796e-08 0)
(-0 7.517305773860915e-08 0)
(-0 7.882044772841169e-08 0)
(-0 8.238103054630353e-08 0)
(-0 8.584950343065192e-08 0)
(-0 8.922001009631557e-08 0)
(-0 9.248615877417313e-08 0)
(-0 9.564104837854238e-08 0)
(-0 9.867730333214058e-08 0)
(-0 1.015871174897421e-07 0)
(-0 1.043623074747936e-07 0)
(-0 1.069943755752745e-07 0)
(-0 1.09474582135218e-07 0)
(-0 1.117940271282527e-07 0)
(-0 1.13943740314174e-07 0)
(-0 1.159147790673839e-07 0)
(-0 1.176983326393368e-07 0)
(-0 1.192858312917122e-07 0)
(-0 1.206690584311644e-07 0)
(-0 1.218402636081896e-07 0)
(-0 1.22792274019731e-07 0)
(-0 1.235186019286187e-07 0)
(-0 1.240135448332011e-07 0)
(-0 1.242722713606942e-07 0)
(-0 2.713902871917977e-09 0)
(-0 8.059648515971904e-09 0)
(-0 1.332514331788954e-08 0)
(-0 1.851236932587735e-08 0)
(-0 2.362308672063167e-08 0)
(-0 2.865888407083256e-08 0)
(-0 3.362112255241738e-08 0)
(-0 3.85108834506896e-08 0)
(-0 4.332891884719894e-08 0)
(-0 4.807560543886301e-08 0)
(-0 5.275090149045884e-08 0)
(-0 5.735430698138034e-08 0)
(-0 6.188482707205366e-08 0)
(-0 6.634093908359382e-08 0)
(-0 7.072056325519612e-08 0)
(-0 7.502103761623415e-08 0)
(-0 7.923909738257636e-08 0)
(-0 8.337085935734385e-08 0)
(-0 8.741181188266551e-08 0)
(-0 9.135681094787258e-08 0)
(-0 9.520008310718214e-08 0)
(-0 9.893523589175368e-08 0)
(-0 1.02555276411908e-07 0)
(-0 1.060526388295753e-07 0)
(-0 1.094192213326623e-07 0)
(-0 1.126464331560274e-07 0)
(-0 1.157252520626437e-07 0)
(-0 1.186462925190114e-07 0)
(-0 1.213998845686031e-07 0)
(-0 1.239761631264928e-07 0)
(-0 1.26365167091525e-07 0)
(-0 1.285569473080372e-07 0)
(-0 1.305416820209954e-07 0)
(-0 1.323097980753302e-07 0)
(-0 1.33852095735752e-07 0)
(-0 1.351598746730004e-07 0)
(-0 1.362250583941679e-07 0)
(-0 1.370403141490961e-07 0)
(-0 1.375991647623623e-07 0)
(-0 1.378960847220976e-07 0)
(-0 2.982448483043342e-09 0)
(-0 8.855121284272644e-09 0)
(-0 1.463775729955839e-08 0)
(-0 2.033271897710769e-08 0)
(-0 2.594211822528152e-08 0)
(-0 3.146787143071113e-08 0)
(-0 3.69116391367323e-08 0)
(-0 4.227476930969514e-08 0)
(-0 4.755824406154582e-08 0)
(-0 5.276262974738099e-08 0)
(-0 5.788803041504033e-08 0)
(-0 6.293404464877755e-08 0)
(-0 6.789972591951757e-08 0)
(-0 7.278354662921212e-08 0)
(-0 7.75833661154467e-08 0)
(-0 8.229640296362192e-08 0)
(-0 8.691921205633146e-08 0)
(-0 9.144766687112457e-08 0)
(-0 9.587694761618576e-08 0)
(-0 1.002015358654146e-07 0)
(-0 1.044152164159149e-07 0)
(-0 1.085110871370985e-07 0)
(-0 1.124815776056731e-07 0)
(-0 1.163184773180233e-07 0)
(-0 1.200129742336468e-07 0)
(-0 1.235557043227134e-07 0)
(-0 1.269368126600911e-07 0)
(-0 1.301460264208436e-07 0)
(-0 1.331727398837053e-07 0)
(-0 1.360061112378033e-07 0)
(-0 1.386351706166743e-07 0)
(-0 1.410489383606342e-07 0)
(-0 1.432365520486031e-07 0)
(-0 1.451874003655704e-07 0)
(-0 1.468912614110197e-07 0)
(-0 1.48338442640668e-07 0)
(-0 1.495199192973374e-07 0)
(-0 1.504274678985336e-07 0)
(-0 1.510537907476419e-07 0)
(-0 1.513926230951848e-07 0)
(-0 3.247735581889103e-09 0)
(-0 9.640531628290941e-09 0)
(-0 1.593327463843693e-08 0)
(-0 2.212875986291333e-08 0)
(-0 2.82295008686643e-08 0)
(-0 3.423778935842919e-08 0)
(-0 4.015563066287876e-08 0)
(-0 4.598468310321834e-08 0)
(-0 5.172620105055992e-08 0)
(-0 5.738098156471049e-08 0)
(-0 6.294931455907249e-08 0)
(-0 6.843093650912316e-08 0)
(-0 7.382498779867191e-08 0)
(-0 7.912997388006504e-08 0)
(-0 8.434373051101685e-08 0)
(-0 8.946339342091424e-08 0)
(-0 9.448537285206722e-08 0)
(-0 9.940533351477477e-08 0)
(-0 1.042181805869412e-07 0)
(-0 1.089180524761302e-07 0)
(-0 1.134983211403054e-07 0)
(-0 1.179516008277937e-07 0)
(-0 1.222697661407947e-07 0)
(-0 1.264439803423761e-07 0)
(-0 1.304647348055657e-07 0)
(-0 1.34321900435318e-07 0)
(-0 1.380047917699743e-07 0)
(-0 1.415022442790335e-07 0)
(-0 1.448027051110255e-07 0)
(-0 1.478943372044547e-07 0)
(-0 1.507651362564484e-07 0)
(-0 1.534030595546823e-07 0)
(-0 1.557961651334937e-07 0)
(-0 1.5793275913951e-07 0)
(-0 1.598015487203502e-07 0)
(-0 1.613917972249128e-07 0)
(-0 1.626934780665676e-07 0)
(-0 1.636974232386808e-07 0)
(-0 1.643954618377074e-07 0)
(-0 1.647805394394402e-07 0)
(-0 3.509681902827584e-09 0)
(-0 1.041564046392937e-08 0)
(-0 1.721131144815409e-08 0)
(-0 2.389997915931524e-08 0)
(-0 3.048461225267011e-08 0)
(-0 3.696792844801342e-08 0)
(-0 4.335232623185167e-08 0)
(-0 4.963982068329728e-08 0)
(-0 5.583198320051678e-08 0)
(-0 6.192988496763482e-08 0)
(-0 6.793404407226711e-08 0)
(-0 7.38443762607463e-08 0)
(-0 7.966014940120028e-08 0)
(-0 8.537994181357925e-08 0)
(-0 9.10016047201203e-08 0)
(-0 9.652222916905013e-08 0)
(-0 1.019381178876992e-07 0)
(-0 1.072447626273031e-07 0)
(-0 1.124368276685758e-07 0)
(-0 1.175081402617117e-07 0)
(-0 1.224516888727557e-07 0)
(-0 1.272596301948144e-07 0)
(-0 1.319233059503838e-07 0)
(-0 1.364332705514624e-07 0)
(-0 1.407793306867438e-07 0)
(-0 1.449505978582453e-07 0)
(-0 1.489355547804291e-07 0)
(-0 1.527221363703148e-07 0)
(-0 1.562978257855072e-07 0)
(-0 1.596497655996383e-07 0)
(-0 1.627648837376983e-07 0)
(-0 1.656300332309755e-07 0)
(-0 1.682321442068702e-07 0)
(-0 1.705583858292076e-07 0)
(-0 1.725963351901204e-07 0)
(-0 1.743341494781826e-07 0)
(-0 1.757607371657595e-07 0)
(-0 1.76865923481104e-07 0)
(-0 1.776406047414977e-07 0)
(-0 1.780768815047648e-07 0)
(-0 3.76817269654848e-09 0)
(-0 1.118011415366387e-08 0)
(-0 1.847132965543919e-08 0)
(-0 2.564565220380014e-08 0)
(-0 3.270656202071583e-08 0)
(-0 3.965725631283021e-08 0)
(-0 4.650057762918699e-08 0)
(-0 5.323894655918905e-08 0)
(-0 5.987429849184557e-08 0)
(-0 6.64080242275139e-08 0)
(-0 7.28409143100254e-08 0)
(-0 7.917310703010239e-08 0)
(-0 8.540404014028406e-08 0)
(-0 9.153240641722726e-08 0)
(-0 9.755611330927716e-08 0)
(-0 1.034722470155389e-07 0)
(-0 1.092770414569649e-07 0)
(-0 1.149658527193798e-07 0)
(-0 1.205331396713727e-07 0)
(-0 1.259724515840791e-07 0)
(-0 1.31276423701273e-07 0)
(-0 1.364367818214531e-07 0)
(-0 1.414443570514005e-07 0)
(-0 1.462891119633876e-07 0)
(-0 1.509601794238773e-07 0)
(-0 1.554459153458405e-07 0)
(-0 1.597339665334622e-07 0)
(-0 1.638113546195651e-07 0)
(-0 1.676645768253778e-07 0)
(-0 1.712797238844081e-07 0)
(-0 1.746426149573746e-07 0)
(-0 1.777389487220287e-07 0)
(-0 1.805544690610979e-07 0)
(-0 1.830751429201403e-07 0)
(-0 1.852873470099621e-07 0)
(-0 1.871780591495005e-07 0)
(-0 1.887350492599756e-07 0)
(-0 1.89947064369451e-07 0)
(-0 1.908040012060038e-07 0)
(-0 1.912970552839255e-07 0)
(-0 4.02305875310033e-09 0)
(-0 1.19335189132289e-08 0)
(-0 1.971262805760473e-08 0)
(-0 2.736483041120944e-08 0)
(-0 3.489417678912884e-08 0)
(-0 4.230439964701301e-08 0)
(-0 4.959883859515852e-08 0)
(-0 5.678037042483556e-08 0)
(-0 6.385134330697123e-08 0)
(-0 7.081351490060327e-08 0)
(-0 7.766799419151605e-08 0)
(-0 8.441518697031103e-08 0)
(-0 9.105474495420616e-08 0)
(-0 9.758551865863781e-08 0)
(-0 1.04005514233796e-07 0)
(-0 1.103118545980711e-07 0)
(-0 1.165007453253388e-07 0)
(-0 1.225674458759081e-07 0)
(-0 1.285062469010482e-07 0)
(-0 1.343104544964498e-07 0)
(-0 1.399723824275802e-07 0)
(-0 1.454833534945697e-07 0)
(-0 1.508337113386039e-07 0)
(-0 1.560128441055095e-07 0)
(-0 1.610092214618146e-07 0)
(-0 1.658104464870617e-07 0)
(-0 1.704033239232933e-07 0)
(-0 1.747739461254763e-07 0)
(-0 1.789077978010257e-07 0)
(-0 1.827898802294212e-07 0)
(-0 1.864048550955713e-07 0)
(-0 1.897372073432964e-07 0)
(-0 1.927714255624374e-07 0)
(-0 1.954921973885512e-07 0)
(-0 1.978846162662354e-07 0)
(-0 1.999343947810459e-07 0)
(-0 2.016280786979303e-07 0)
(-0 2.02953254934972e-07 0)
(-0 2.038987457657488e-07 0)
(-0 2.044547768519992e-07 0)
(-0 4.274154699333754e-09 0)
(-0 1.26753160381e-08 0)
(-0 2.093433473458987e-08 0)
(-0 2.905633106170194e-08 0)
(-0 3.704598744438282e-08 0)
(-0 4.490762911640333e-08 0)
(-0 5.264514735174846e-08 0)
(-0 6.026192732779971e-08 0)
(-0 6.776078021557997e-08 0)
(-0 7.514387917664231e-08 0)
(-0 8.241269903508967e-08 0)
(-0 8.956795948722119e-08 0)
(-0 9.660957181125423e-08 0)
(-0 1.035365891464625e-07 0)
(-0 1.103471605260911e-07 0)
(-0 1.170384889727525e-07 0)
(-0 1.236067940997785e-07 0)
(-0 1.300472798080037e-07 0)
(-0 1.363541078248976e-07 0)
(-0 1.425203780010509e-07 0)
(-0 1.485381164555675e-07 0)
(-0 1.543982728426045e-07 0)
(-0 1.600907281891415e-07 0)
(-0 1.656043149185324e-07 0)
(-0 1.709268508107509e-07 0)
(-0 1.76045188738964e-07 0)
(-0 1.80945284038508e-07 0)
(-0 1.856122812791862e-07 0)
(-0 1.900306219921453e-07 0)
(-0 1.941841745145082e-07 0)
(-0 1.980563865274021e-07 0)
(-0 2.016304600534699e-07 0)
(-0 2.0488954764147e-07 0)
(-0 2.078169672147868e-07 0)
(-0 2.103964316456074e-07 0)
(-0 2.126122876222315e-07 0)
(-0 2.144497569247249e-07 0)
(-0 2.158951719403714e-07 0)
(-0 2.169361960562137e-07 0)
(-0 2.175620148547316e-07 0)
(-0 4.521237607480572e-09 0)
(-0 1.340485805193708e-08 0)
(-0 2.213540097547153e-08 0)
(-0 3.071872917148294e-08 0)
(-0 3.916021906175353e-08 0)
(-0 4.746484737461139e-08 0)
(-0 5.563711271819908e-08 0)
(-0 6.368096184455574e-08 0)
(-0 7.159972013258064e-08 0)
(-0 7.939602590884943e-08 0)
(-0 8.707176831934597e-08 0)
(-0 9.462802856336848e-08 0)
(-0 1.020650244044542e-07 0)
(-0 1.093820579837103e-07 0)
(-0 1.165774670802912e-07 0)
(-0 1.236485800939182e-07 0)
(-0 1.305916751673783e-07 0)
(-0 1.374019440248072e-07 0)
(-0 1.4407346127575e-07 0)
(-0 1.50599160126192e-07 0)
(-0 1.569708156452081e-07 0)
(-0 1.631790369567358e-07 0)
(-0 1.692132699542876e-07 0)
(-0 1.750618123621612e-07 0)
(-0 1.807118431745351e-07 0)
(-0 1.861494686720365e-07 0)
(-0 1.91359787314944e-07 0)
(-0 1.963269758066107e-07 0)
(-0 2.010343984666283e-07 0)
(-0 2.054647417028762e-07 0)
(-0 2.096001747769561e-07 0)
(-0 2.134225371773858e-07 0)
(-0 2.169135517242375e-07 0)
(-0 2.200550610300966e-07 0)
(-0 2.228292831770531e-07 0)
(-0 2.252190805293718e-07 0)
(-0 2.272082336317901e-07 0)
(-0 2.287817103243416e-07 0)
(-0 2.299259185875929e-07 0)
(-0 2.30628926827588e-07 0)
(-0 4.764045955234396e-09 0)
(-0 1.41213858889447e-08 0)
(-0 2.331459689492859e-08 0)
(-0 3.235035167844282e-08 0)
(-0 4.123478372857655e-08 0)
(-0 4.997358053406163e-08 0)
(-0 5.857190418841247e-08 0)
(-0 6.703431667641004e-08 0)
(-0 7.536470930225417e-08 0)
(-0 8.356623581650239e-08 0)
(-0 9.164124889715528e-08 0)
(-0 9.95912397412478e-08 0)
(-0 1.074167806288216e-07 0)
(-0 1.151174704333471e-07 0)
(-0 1.226918831740632e-07 0)
(-0 1.301375198392403e-07 0)
(-0 1.374507638581878e-07 0)
(-0 1.446268407672603e-07 0)
(-0 1.516597828042696e-07 0)
(-0 1.585423993791762e-07 0)
(-0 1.652662546080569e-07 0)
(-0 1.718216533614547e-07 0)
(-0 1.781976375633959e-07 0)
(-0 1.843819947751149e-07 0)
(-0 1.903612813929842e-07 0)
(-0 1.96120863060349e-07 0)
(-0 2.01644975105025e-07 0)
(-0 2.069168059241358e-07 0)
(-0 2.119186061903889e-07 0)
(-0 2.166318264837879e-07 0)
(-0 2.210372853898186e-07 0)
(-0 2.251153691817371e-07 0)
(-0 2.288462628679036e-07 0)
(-0 2.322102106130653e-07 0)
(-0 2.351878013613689e-07 0)
(-0 2.377602729900089e-07 0)
(-0 2.399098256726509e-07 0)
(-0 2.416199325669614e-07 0)
(-0 2.428756336583817e-07 0)
(-0 2.436637935043452e-07 0)
(-0 5.002278980911938e-09 0)
(-0 1.482402723059726e-08 0)
(-0 2.447050892843169e-08 0)
(-0 3.394927419292446e-08 0)
(-0 4.32672765785173e-08 0)
(-0 5.243097345085337e-08 0)
(-0 6.144624637901662e-08 0)
(-0 7.031832612350229e-08 0)
(-0 7.905172161410625e-08 0)
(-0 8.765015241360291e-08 0)
(-0 9.611648426409384e-08 0)
(-0 1.044526674149442e-07 0)
(-0 1.126596775365186e-07 0)
(-0 1.207374591351689e-07 0)
(-0 1.286848715054278e-07 0)
(-0 1.364996373889165e-07 0)
(-0 1.441782946605129e-07 0)
(-0 1.517161515356797e-07 0)
(-0 1.591072459936168e-07 0)
(-0 1.663443103440252e-07 0)
(-0 1.734187421349286e-07 0)
(-0 1.803205829076238e-07 0)
(-0 1.870385066517984e-07 0)
(-0 1.935598201936382e-07 0)
(-0 1.998704781496626e-07 0)
(-0 2.059551154764801e-07 0)
(-0 2.117971010062602e-07 0)
(-0 2.173786156285191e-07 0)
(-0 2.226807588925213e-07 0)
(-0 2.276836876757647e-07 0)
(-0 2.32366790093635e-07 0)
(-0 2.367088969095499e-07 0)
(-0 2.406885312500279e-07 0)
(-0 2.442841953733553e-07 0)
(-0 2.474746905806149e-07 0)
(-0 2.502394631754184e-07 0)
(-0 2.5255896585869e-07 0)
(-0 2.544150203777156e-07 0)
(-0 2.557911639759213e-07 0)
(-0 2.566729564606363e-07 0)
(-0 5.235596479717472e-09 0)
(-0 1.551179612339852e-08 0)
(-0 2.56015394044699e-08 0)
(-0 3.551332057675313e-08 0)
(-0 4.525497536000397e-08 0)
(-0 5.483378920363578e-08 0)
(-0 6.425641828398187e-08 0)
(-0 7.352881492845449e-08 0)
(-0 8.265615679874469e-08 0)
(-0 9.164277927046708e-08 0)
(-0 1.004921105487255e-07 0)
(-0 1.092066091600191e-07 0)
(-0 1.177877035633373e-07 0)
(-0 1.262357337304649e-07 0)
(-0 1.345498946613672e-07 0)
(-0 1.427281819298393e-07 0)
(-0 1.507673395030219e-07 0)
(-0 1.586628102524559e-07 0)
(-0 1.66408689781404e-07 0)
(-0 1.739976844410135e-07 0)
(-0 1.814210747042648e-07 0)
(-0 1.886686854182321e-07 0)
(-0 1.957288648660978e-07 0)
(-0 2.025884750400842e-07 0)
(-0 2.092328960468298e-07 0)
(-0 2.156460481182186e-07 0)
(-0 2.218104352479587e-07 0)
(-0 2.277072149613658e-07 0)
(-0 2.333162990719717e-07 0)
(-0 2.386164903754841e-07 0)
(-0 2.435856599449511e-07 0)
(-0 2.482009688684493e-07 0)
(-0 2.524391367595733e-07 0)
(-0 2.562767570477194e-07 0)
(-0 2.596906558650543e-07 0)
(-0 2.626582873486537e-07 0)
(-0 2.651581535742315e-07 0)
(-0 2.671702324872205e-07 0)
(-0 2.686763925687048e-07 0)
(-0 2.69660766083033e-07 0)
(-0 5.463619088450738e-09 0)
(-0 1.618359400734388e-08 0)
(-0 2.670590839648265e-08 0)
(-0 3.704006561956819e-08 0)
(-0 4.719484387004338e-08 0)
(-0 5.717841315790732e-08 0)
(-0 6.699825778736627e-08 0)
(-0 7.666110300309342e-08 0)
(-0 8.617284508212065e-08 0)
(-0 9.553848425560495e-08 0)
(-0 1.047620599458538e-07 0)
(-0 1.138465879013454e-07 0)
(-0 1.227939989090431e-07 0)
(-0 1.316050788626923e-07 0)
(-0 1.402794100725821e-07 0)
(-0 1.48815313822031e-07 0)
(-0 1.572097943155003e-07 0)
(-0 1.654584843310346e-07 0)
(-0 1.735555930954166e-07 0)
(-0 1.814938571551127e-07 0)
(-0 1.892644953317982e-07 0)
(-0 1.96857169240103e-07 0)
(-0 2.042599513178816e-07 0)
(-0 2.114593028826829e-07 0)
(-0 2.184400653817775e-07 0)
(-0 2.251854687345557e-07 0)
(-0 2.316771614444625e-07 0)
(-0 2.378952679260829e-07 0)
(-0 2.438184791608911e-07 0)
(-0 2.494241832310449e-07 0)
(-0 2.546886423088943e-07 0)
(-0 2.59587222085829e-07 0)
(-0 2.640946781718007e-07 0)
(-0 2.681855014670928e-07 0)
(-0 2.718343207584462e-07 0)
(-0 2.750163558353698e-07 0)
(-0 2.777079084988163e-07 0)
(-0 2.798868724267079e-07 0)
(-0 2.815332366170352e-07 0)
(-0 2.826295486353545e-07 0)
(-0 5.685929105856491e-09 0)
(-0 1.683821228360887e-08 0)
(-0 2.778165805492216e-08 0)
(-0 3.852684107851959e-08 0)
(-0 4.908353958172882e-08 0)
(-0 5.946086200550714e-08 0)
(-0 6.966717188696602e-08 0)
(-0 7.971001655766768e-08 0)
(-0 8.959605888964548e-08 0)
(-0 9.933101142842996e-08 0)
(-0 1.089195723503009e-07 0)
(-0 1.183653627720297e-07 0)
(-0 1.276708650286944e-07 0)
(-0 1.368373616226641e-07 0)
(-0 1.45864874639502e-07 0)
(-0 1.547521055305921e-07 0)
(-0 1.634963752856641e-07 0)
(-0 1.720935651709973e-07 0)
(-0 1.805380584031352e-07 0)
(-0 1.888226833780668e-07 0)
(-0 1.969386593990092e-07 0)
(-0 2.048755462608226e-07 0)
(-0 2.126211995748596e-07 0)
(-0 2.201617343718817e-07 0)
(-0 2.274815003140161e-07 0)
(-0 2.345630727794625e-07 0)
(-0 2.41387265135914e-07 0)
(-0 2.479331686400674e-07 0)
(-0 2.541782274973941e-07 0)
(-0 2.600983575375194e-07 0)
(-0 2.656681174865988e-07 0)
(-0 2.708609416574252e-07 0)
(-0 2.756494416805324e-07 0)
(-0 2.800057822994372e-07 0)
(-0 2.839021319551824e-07 0)
(-0 2.873111828031024e-07 0)
(-0 2.902067272329414e-07 0)
(-0 2.925642697013366e-07 0)
(-0 2.943616449247799e-07 0)
(-0 2.955796039386871e-07 0)
(-0 5.90207189387602e-09 0)
(-0 1.747433654384892e-08 0)
(-0 2.88266596096671e-08 0)
(-0 3.997074533373006e-08 0)
(-0 5.091742577761529e-08 0)
(-0 6.167679815181972e-08 0)
(-0 7.225815306506658e-08 0)
(-0 8.266990613828608e-08 0)
(-0 9.291953218360393e-08 0)
(-0 1.03013501254075e-07 0)
(-0 1.129572159622116e-07 0)
(-0 1.227549495471826e-07 0)
(-0 1.324097842451129e-07 0)
(-0 1.419235495881411e-07 0)
(-0 1.512967603309094e-07 0)
(-0 1.605285537845449e-07 0)
(-0 1.69616626436574e-07 0)
(-0 1.785571698618558e-07 0)
(-0 1.873448060989635e-07 0)
(-0 1.959725228966668e-07 0)
(-0 2.044316095485211e-07 0)
(-0 2.127115944562522e-07 0)
(-0 2.208001861240474e-07 0)
(-0 2.28683220016648e-07 0)
(-0 2.36344614642356e-07 0)
(-0 2.43766341366946e-07 0)
(-0 2.509284138264643e-07 0)
(-0 2.578089043535157e-07 0)
(-0 2.643839964784322e-07 0)
(-0 2.706280841541664e-07 0)
(-0 2.765139296228842e-07 0)
(-0 2.820128924151944e-07 0)
(-0 2.870952413504757e-07 0)
(-0 2.917305590033089e-07 0)
(-0 2.958882433499731e-07 0)
(-0 2.995381038821149e-07 0)
(-0 3.026510396596007e-07 0)
(-0 3.051997759906058e-07 0)
(-0 3.071596275853829e-07 0)
(-0 3.085092490371397e-07 0)
(-0 6.111557901069456e-09 0)
(-0 1.809055257156219e-08 0)
(-0 2.983862321364497e-08 0)
(-0 4.136865688592192e-08 0)
(-0 5.269258846963509e-08 0)
(-0 6.382154978771539e-08 0)
(-0 7.476580220490131e-08 0)
(-0 8.553467204101055e-08 0)
(-0 9.613648798319928e-08 0)
(-0 1.065785197843275e-07 0)
(-0 1.168669176187579e-07 0)
(-0 1.270066515365968e-07 0)
(-0 1.370014505156205e-07 0)
(-0 1.468537406606741e-07 0)
(-0 1.565645821480377e-07 0)
(-0 1.661336045635969e-07 0)
(-0 1.755589403474545e-07 0)
(-0 1.848371561459131e-07 0)
(-0 1.939631820006551e-07 0)
(-0 2.029302384958187e-07 0)
(-0 2.117297622638696e-07 0)
(-0 2.20351330654948e-07 0)
(-0 2.287825869427536e-07 0)
(-0 2.370091682199844e-07 0)
(-0 2.450146391776986e-07 0)
(-0 2.527804363124309e-07 0)
(-0 2.602858287953857e-07 0)
(-0 2.675079042713634e-07 0)
(-0 2.744215901765995e-07 0)
(-0 2.809997236285452e-07 0)
(-0 2.872131852671831e-07 0)
(-0 2.930311141576517e-07 0)
(-0 2.984212213225975e-07 0)
(-0 3.033502177665926e-07 0)
(-0 3.07784367956435e-07 0)
(-0 3.116901707325246e-07 0)
(-0 3.150351564103041e-07 0)
(-0 3.17788773357144e-07 0)
(-0 3.19923326191977e-07 0)
(-0 3.214149310620421e-07 0)
(-0 6.313865343161811e-09 0)
(-0 1.868535420768597e-08 0)
(-0 3.081511076905461e-08 0)
(-0 4.271725188294466e-08 0)
(-0 5.44048583375781e-08 0)
(-0 6.58901369271544e-08 0)
(-0 7.71843583898149e-08 0)
(-0 8.829779750633127e-08 0)
(-0 9.923967455180688e-08 0)
(-0 1.100180973876169e-07 0)
(-0 1.20640003554426e-07 0)
(-0 1.311111017818463e-07 0)
(-0 1.414358123689223e-07 0)
(-0 1.516172059153586e-07 0)
(-0 1.61656939900404e-07 0)
(-0 1.715551926203178e-07 0)
(-0 1.813105940146309e-07 0)
(-0 1.90920152947884e-07 0)
(-0 2.003791805841113e-07 0)
(-0 2.09681209619513e-07 0)
(-0 2.188179093563633e-07 0)
(-0 2.277789969500125e-07 0)
(-0 2.365521456941288e-07 0)
(-0 2.451228919923641e-07 0)
(-0 2.534745437736705e-07 0)
(-0 2.615880946263701e-07 0)
(-0 2.694421499324565e-07 0)
(-0 2.770128738363485e-07 0)
(-0 2.842739689865829e-07 0)
(-0 2.911967045503212e-07 0)
(-0 2.977500117603886e-07 0)
(-0 3.039006697082877e-07 0)
(-0 3.096136064012101e-07 0)
(-0 3.148523399915792e-07 0)
(-0 3.195795808523118e-07 0)
(-0 3.237580047926727e-07 0)
(-0 3.273511894446038e-07 0)
(-0 3.303246801567729e-07 0)
(-0 3.326471276911245e-07 0)
(-0 3.342914505367864e-07 0)
(-0 6.508443566958851e-09 0)
(-0 1.92571531476603e-08 0)
(-0 3.175355183750271e-08 0)
(-0 4.401302580778996e-08 0)
(-0 5.604983785113083e-08 0)
(-0 6.787730361289972e-08 0)