/*--------------------------------*- C++ -*----------------------------------*\
| =========                 |                                                 |
| \\      /  F ield         | OpenFOAM: The Open Source CFD Toolbox           |
|  \\    /   O peration     | Version:  2206                                  |
|   \\  /    A nd           | Website:  www.openfoam.com                      |
|    \\/     M anipulation  |                                                 |
\*---------------------------------------------------------------------------*/
FoamFile
{
    version     2.0;
    format      ascii;
    arch        "LSB;label=32;scalar=64";
    class       volVectorField;
    location    "1";
    object      ddt0(U);
}
// * * * * * * * * * * * * * * * * * * * * * * * * * * * * * * * * * * * * * //

dimensions      [0 1 -2 0 0 0 0];

internalField   nonuniform List<vector> 
18114
(
(-4.806726209284176e-07 1.849072295454688e-06 -6.414750969342575e-26)
(-3.250307307531943e-06 1.210648936762167e-06 -1.466891632779598e-25)
(-9.593007068937257e-06 2.938554779279196e-06 -3.867796061774885e-26)
(-1.874201473029821e-05 4.850888658703555e-06 -2.48185067520378e-26)
(-3.043003877995808e-05 6.616734685552021e-06 1.648234286269234e-25)
(-4.476575004987416e-05 7.776128780444387e-06 -1.503641671336243e-26)
(-6.091167251932145e-05 8.673715667205881e-06 2.794398852994806e-27)
(-7.80667627783631e-05 9.357517955156886e-06 4.682545182950343e-26)
(-9.64232709238545e-05 1.006738747899857e-05 1.970375134089078e-26)
(-0.0001165347039670705 1.129086376224441e-05 7.168192803307776e-27)
(-0.0001399628514089267 1.40067050261339e-05 -1.293831003154818e-25)
(-0.0001654243061861849 1.451795916847876e-05 -4.109268439936748e-27)
(-0.0001976897647772801 1.460608147010889e-05 1.62058442348327e-26)
(-0.0002305423538101028 1.77160895156184e-05 4.298683348985649e-26)
(-0.0002705009943637375 2.074268165790792e-05 -8.301556048184377e-28)
(-0.0003153645512615218 2.324750974226708e-05 1.216316825401124e-26)
(-0.0003659203500523333 2.478457180949813e-05 5.811219408007015e-26)
(-0.0004201367698507804 2.523570523112043e-05 5.286828115549207e-27)
(-0.0004782633439106997 2.494338988227144e-05 6.183459255702325e-27)
(-0.0005387258250871358 2.416428009646595e-05 -4.777055697641027e-27)
(-0.0005999662343504119 2.324473599934957e-05 -2.804417393401729e-26)
(-0.0006618790533359852 2.31397490851883e-05 -5.190281985938027e-27)
(-0.0007272069676081321 2.205009922563042e-05 1.337597390756095e-28)
(-0.0007893061748615812 2.091172129600408e-05 -1.86591768233367e-27)
(-0.000853847246488098 2.160133335403128e-05 -1.009338938916161e-26)
(-0.0009193020491355649 2.216479377221863e-05 2.96395125024273e-27)
(-0.000984296722565531 2.083239689191388e-05 -3.094933708475423e-27)
(-0.001051418487609135 1.960157931921536e-05 1.302616096757489e-26)
(-0.001118594180005127 1.77065172781218e-05 -1.000336325138239e-26)
(-0.001186789930211059 1.568341524306208e-05 7.985150210687004e-27)
(-0.001256485506740133 1.363962862657297e-05 -1.241590428451134e-29)
(-0.001327903515372918 1.233741061801174e-05 1.758459058902153e-27)
(-0.001402238997861059 1.142787825249063e-05 3.339085660306703e-27)
(-0.0014794084637089 1.061836869740601e-05 -1.881142674000365e-27)
(-0.001559613689170938 1.002213064821654e-05 -4.943776304230097e-27)
(-0.001643737374969178 9.290794974222011e-06 7.062887902877607e-28)
(-0.001729072079384748 8.936811603466017e-06 4.409809718031223e-29)
(-0.001818918591287874 8.397759607450219e-06 -1.087797761746557e-27)
(-0.001909934160774676 7.535095500780844e-06 6.855944640831088e-28)
(-0.002005869617992749 5.325352489040406e-06 2.472002554784188e-29)
(-9.930072859272403e-07 9.698159303062824e-07 1.143462278640013e-26)
(1.136180819751895e-06 9.099166948174856e-06 2.634227664232834e-25)
(-1.038837139219027e-05 1.331798662443004e-05 5.294165230811192e-26)
(-1.951604598036056e-05 1.564688553134062e-05 1.30099752992912e-25)
(-2.982888680660183e-05 1.835023174382379e-05 -1.022894466869494e-26)
(-4.277019747765618e-05 2.328453809897482e-05 -3.144313565980494e-26)
(-5.736937573451438e-05 2.414237286489284e-05 5.832399178623594e-26)
(-7.275176412950215e-05 2.603683593634845e-05 -9.330281235007061e-27)
(-8.941085218899996e-05 2.858421006895624e-05 -1.104082892446993e-26)
(-0.0001070846938208553 3.191930538588769e-05 -1.797883616860265e-26)
(-0.0001267417121581347 3.60280118348338e-05 1.384854281210519e-25)
(-0.0001480901241350607 4.116547628098475e-05 -4.215544939591871e-26)
(-0.0001722454846627723 4.780254526307603e-05 6.809753080294248e-28)
(-0.0001995380394425727 5.506430965009116e-05 -3.563805327768328e-26)
(-0.0002302778611285279 6.301995226975251e-05 1.000685689109061e-26)
(-0.0002650487287275315 7.121553082858218e-05 -2.530609585414236e-26)
(-0.0003047028116812117 7.913430516551603e-05 -4.242790283637704e-26)
(-0.0003495485058071583 8.635446534442072e-05 -8.393401472367643e-26)
(-0.0004006785431278398 9.365971350379072e-05 -6.935226425670459e-26)
(-0.0004567519249080605 9.850220589615176e-05 -6.324932744465431e-26)
(-0.0005243104639375938 0.0001016217717837022 -7.49205915750566e-27)
(-0.0005944279727246943 0.0001067052217865413 -7.357890643788634e-26)
(-0.0006733066099515615 0.0001098512716454093 -5.221483681345723e-26)
(-0.0007514437001456904 0.0001092307308819543 -2.184441101863829e-27)
(-0.0008376913273487335 0.0001112888410553123 2.450094622343162e-26)
(-0.0009332469706479222 0.0001136364018556466 9.734919028586573e-27)
(-0.001033581595342124 0.0001169199877558187 -1.154629498668595e-27)
(-0.001141864891556991 0.0001200768371266269 1.121643843462203e-26)
(-0.001253411299254651 0.0001241209345605271 2.013322433097636e-26)
(-0.001373622464844723 0.0001282279720822588 -1.298821536574918e-26)
(-0.001496540994397993 0.0001333181723436873 1.076834817320167e-26)
(-0.001627980679055547 0.0001388705467947514 -3.816560661358229e-28)
(-0.001763613645655974 0.0001457876762703999 -9.978674032469169e-27)
(-0.001910710913956916 0.0001519814831677127 1.283962196732863e-28)
(-0.002060886651483461 0.000159814722690654 7.436010828495764e-27)
(-0.002224269861492048 0.0001649797246933302 4.726909199712617e-27)
(-0.002388272059195883 0.0001714076645606086 -4.960434427980583e-29)
(-0.002566865861108653 0.0001770155216916643 2.388757294363357e-27)
(-0.002747944785060439 0.00018672146986298 -6.0989258163617e-28)
(-0.002944294488689311 0.0001963037459495898 -1.225574974088659e-28)
(-6.071181926599244e-07 2.526126841484643e-06 -1.529628302645768e-25)
(-2.059820643078878e-06 1.149670034036413e-05 -4.670194496565374e-25)
(-6.48931632111729e-06 1.942751323033231e-05 9.722494190389143e-26)
(-1.377220281962781e-05 2.654629421881995e-05 -3.156661027836506e-25)
(-2.43523132217988e-05 3.094585911760722e-05 1.5011917264609e-25)
(-3.650112837213943e-05 3.588256198201983e-05 1.727014626454584e-25)
(-5.033286253358533e-05 3.853239364462391e-05 -4.018895107806941e-25)
(-6.278298415474584e-05 4.133783475330176e-05 -2.428533020821337e-25)
(-8.087751016543456e-05 4.48165613770164e-05 -2.071841931818868e-25)
(-9.558564124240905e-05 4.751976073520288e-05 2.037155546367236e-25)
(-0.0001097212218836356 5.723685104399762e-05 -1.881452358092519e-25)
(-0.0001249229548832621 5.73888222011499e-05 -2.504912578136774e-25)
(-0.0001403693271070849 7.078402927675279e-05 5.031181328012396e-26)
(-0.0001551779684571319 7.409255152566446e-05 1.307360849861165e-26)
(-0.0001727520827409072 8.649728297027748e-05 -1.21816911691317e-25)
(-0.000192193067945662 9.855309756199595e-05 5.882706837810869e-26)
(-0.0002137998212238663 0.0001104904077861919 2.512974058407089e-26)
(-0.0002379670792574704 0.0001216008288479662 1.28410329031998e-25)
(-0.0002649161705885996 0.0001327888769117845 3.139620983873345e-26)
(-0.000295863123237264 0.0001447076096480035 -2.794935091443266e-28)
(-0.0003318131706248017 0.0001558093446641249 3.061651820452534e-26)
(-0.0003730420179627976 0.0001695310913409074 9.804122912216207e-26)
(-0.0004190858876058023 0.0001713188733917571 7.651292327072891e-26)
(-0.0004709858541470657 0.0001776057851010712 2.883799789315369e-26)
(-0.0005287806306153556 0.0002010207325322857 1.261902491503859e-26)
(-0.0005906844468235447 0.0002117491506265133 -4.712332166273951e-26)
(-0.0006575993930090986 0.0002206537882978454 9.317493781394888e-26)
(-0.0007294942095890412 0.0002291351284785607 -7.862522799650388e-26)
(-0.0008063667912824686 0.0002392409096662347 2.207147330063258e-26)
(-0.0008875088911863626 0.0002492147697057833 3.897064201046851e-26)
(-0.0009771583908739073 0.0002565689976248138 5.289342800820614e-27)
(-0.001073383015510843 0.0002686420192886893 -7.989978999960281e-27)
(-0.001170846912474633 0.0002838502199901895 1.040608349866714e-26)
(-0.001280835745456455 0.0002983202092325703 1.166384708820611e-26)
(-0.001392787370205936 0.0003155596617733644 -2.074452717090332e-27)
(-0.001518147816156344 0.0003305428147378813 -3.563488256999944e-26)
(-0.001643675966492479 0.0003465683722778557 4.084880425959465e-27)
(-0.001780461626577171 0.0003595924941949559 -6.751562554092503e-27)
(-0.001921686205737218 0.0003769583567264693 -2.713207799901408e-27)
(-0.002070370091408287 0.0003917684128072721 9.395461378156818e-29)
(-3.386450168562083e-07 3.613892581775719e-06 3.245861507006068e-25)
(-2.147513379882588e-06 1.439862039825663e-05 8.154726049302479e-26)
(-5.531794439600058e-06 2.574328924609208e-05 -3.882680712394094e-25)
(-1.353477377733754e-05 3.387216499484297e-05 4.527468848125597e-25)
(-2.224670177299862e-05 4.170185116911745e-05 -2.003373799462181e-25)
(-3.460318428240652e-05 4.718308911092249e-05 -3.405763286062459e-25)
(-4.595045667673664e-05 5.236780283215737e-05 4.253584352105332e-25)
(-6.104467131703742e-05 5.517352822864876e-05 -2.203344291988825e-25)
(-7.213899668687066e-05 5.954021828255107e-05 2.322095599934958e-25)
(-8.735916848587968e-05 6.195823552832451e-05 -1.700454269366055e-25)
(-9.748901569458763e-05 6.686452140579135e-05 2.495536896125699e-25)
(-0.0001108506363982437 7.180150066519303e-05 2.409217158917738e-25)
(-0.0001202195370710065 7.981820730101528e-05 -2.414916254499542e-25)
(-0.0001319140439824178 8.787684493215711e-05 2.295960117819656e-26)
(-0.0001403471533918632 9.934667015346207e-05 4.766273068261285e-27)
(-0.0001545807814363743 0.0001113790492870758 -8.956081016189926e-26)
(-0.0001599097652602275 0.0001249708565593234 -6.365651440760372e-26)
(-0.0001786718963237397 0.0001369123928012561 -1.380237494864271e-25)
(-0.000195179311340578 0.0001530046078074472 6.451187355088604e-26)
(-0.0002137431513866988 0.0001676702418773399 -4.91653923639008e-26)
(-0.0002350637607874968 0.0001827793226250925 -2.290459761536429e-26)
(-0.0002589229002497678 0.0001976294716521393 -6.906209083900167e-26)
(-0.0002832280604751126 0.0002101552514599249 -1.494860853884042e-25)
(-0.0003134250262255341 0.0002221193818995435 1.759784059796431e-26)
(-0.0003462430613531507 0.0002348999903622493 -6.190695451642252e-26)
(-0.0003802556777187705 0.0002490298916913698 2.476615694131043e-26)
(-0.0004162736000760775 0.0002629582173528646 -5.669474311453137e-26)
(-0.0004546502435510102 0.0002747842897933815 8.829739110379101e-26)
(-0.0004941720481870443 0.0002881980676539545 -4.3532857528601e-26)
(-0.000536173033198973 0.0003040721473526855 -3.463662235164527e-27)
(-0.0005823622029529332 0.0003213910557671991 -1.794801123049454e-26)
(-0.0006332525933934697 0.0003386393306225702 6.953199621279556e-27)
(-0.000687390803525895 0.0003572111521544393 3.225037702209727e-26)
(-0.0007442257491626197 0.0003770618428249944 -2.70081935010287e-26)
(-0.0008040698140340301 0.000402018036654281 1.204110863144634e-27)
(-0.0008683595731934515 0.000410864278202792 1.340065213289712e-26)
(-0.0009381230840237953 0.0004315214533179564 5.815777609624146e-27)
(-0.001012851463087182 0.0004580482173178162 9.224211531698661e-27)
(-0.001094621337337011 0.0004808668732249094 9.145590529361482e-28)
(-0.001176822713239518 0.0005221465998518228 4.3695962761649e-28)
(-2.768331421840022e-07 4.958590313523747e-06 -7.198957455934354e-25)
(-2.286716695572176e-06 1.749177599743744e-05 1.955742076886521e-25)
(-5.618438886645707e-06 3.196102017427806e-05 -5.234285037639482e-26)
(-1.407330736892882e-05 4.229707882732431e-05 -1.105032616378712e-25)
(-2.217474419931551e-05 5.316223235272946e-05 -1.973304857239134e-25)
(-3.535434695961464e-05 5.921377614927021e-05 -9.904661066699098e-26)
(-4.529066922927644e-05 6.598786891748289e-05 -4.498464471786641e-25)
(-6.087983983829248e-05 6.818238309420987e-05 3.857148646243139e-25)
(-7.000286454945627e-05 7.246122876016456e-05 -4.108882608374041e-26)
(-8.522081706317982e-05 7.384496693393904e-05 1.295933431417564e-25)
(-9.206345109978925e-05 7.848959312852153e-05 6.872694848719106e-26)
(-0.0001058426788099625 8.218843603323322e-05 -9.144144421053613e-27)
(-0.0001103390214804983 8.928438191534487e-05 -7.250777735616006e-26)
(-0.0001231774242455354 9.78840904033901e-05 -4.111553249339706e-26)
(-0.000126256233625162 0.0001087884352367811 1.130684803427935e-25)
(-0.0001400196735944643 0.0001216111249353437 1.001066487821031e-25)
(-0.0001422306175708156 0.0001351331843298208 -7.068910357308982e-26)
(-0.000157794140765122 0.0001525288017550894 1.145939425364487e-25)
(-0.0001607260363181061 0.0001667836543935165 -2.055942093409429e-26)
(-0.0001808906685847376 0.000186343379163433 1.488929587332254e-25)
(-0.0001846665297159987 0.0001970925587427502 -6.337583543540754e-27)
(-0.0002105580182367998 0.0002192857209716747 4.430653553339604e-26)
(-0.0002160597336732563 0.0002250380110476731 1.953467518483562e-25)
(-0.0002480781544985747 0.0002507415788995971 1.681300648924413e-26)
(-0.0002548547779218692 0.0002512918481372754 -4.265547839432361e-26)
(-0.0002901831461582923 0.000277023156470508 5.545583723475897e-26)
(-0.0002893705480217 0.0002879864828513857 -1.167227339292604e-25)
(-0.0003287811203358481 0.0003045067264167994 -8.468479679598566e-26)
(-0.0003557216961481438 0.000318344211546703 7.826436138490527e-26)
(-0.0003820131251027324 0.0003366987991536596 -6.534463043483224e-26)
(-0.0004108302822845707 0.0003561545937465011 -2.444585166740138e-26)
(-0.000439475864574024 0.0003751385131487822 1.357002543039613e-26)
(-0.0004666147915416226 0.0003911699079284774 -3.613905958444788e-26)
(-0.0004936647418484075 0.0004144823948959712 -6.773683602687255e-27)
(-0.0005227311036257098 0.0004402816410983459 -1.084313027600778e-26)
(-0.0005532790331874281 0.0004679975513408063 -8.386281352054506e-27)
(-0.0005870292865846069 0.0004883204162128017 -2.39760355002062e-26)
(-0.0006253347443580038 0.0005161761864182177 -6.47248220041303e-27)
(-0.0006657500877114678 0.0005412544322861317 2.932902355231367e-28)
(-0.0007026329361685347 0.0005657606143434985 -9.168293098105817e-28)
(-2.497456685681112e-07 5.768043161791376e-06 1.028505785166749e-24)
(-2.142932919069198e-06 2.060289361486666e-05 3.13456874108608e-25)
(-5.949593644556165e-06 3.733586480012032e-05 4.201685327812433e-25)
(-1.37590280229247e-05 5.061201630126653e-05 3.567619082702039e-25)
(-2.259631396026663e-05 6.291384412239339e-05 2.704354544110521e-25)
(-3.464183136095368e-05 7.088579518474618e-05 2.841143005004608e-25)
(-4.580656798136637e-05 7.752148487477072e-05 -2.562073033606406e-25)
(-5.926941528102256e-05 8.05404323320416e-05 -2.109619045112738e-25)
(-7.02256227129788e-05 8.336645811398765e-05 5.685483886999025e-25)
(-8.252154442641842e-05 8.482170807417641e-05 6.281023649859398e-26)
(-9.170142383011876e-05 8.760330350836957e-05 -1.379975551434872e-25)
(-0.000101828517634988 9.106837945880536e-05 3.686238166802055e-26)
(-0.0001093425464230754 9.685163116361382e-05 1.797793438383838e-25)
(-0.0001175357138369672 0.0001046541578064552 -7.392548788215668e-26)
(-0.0001243561113360306 0.0001151029838414708 5.299532857009838e-26)
(-0.0001310073656438775 0.0001277787825843445 1.766257640900526e-27)
(-0.0001387572415219318 0.0001426893963183696 2.592127909215506e-25)
(-0.000144984408496988 0.0001587172477140609 1.279573713050197e-25)
(-0.0001551312444190067 0.0001764858170282991 -5.88570451995829e-27)
(-0.0001616313016840475 0.0001932721195073331 3.357102438969396e-26)
(-0.000174497020997118 0.0002119243939031838 1.100445146738593e-25)
(-0.0001830228900625462 0.0002278798813948499 1.114336133673539e-26)
(-0.0001985696969624218 0.0002458929188611402 -1.60969114533023e-26)
(-0.0002103524331536144 0.0002601076710064424 -2.208353192078001e-25)
(-0.0002256635935136643 0.0002783646521736819 5.541510509229704e-26)
(-0.0002466899602059456 0.0002963364008710875 -8.290970131391885e-26)
(-0.0002576339490298071 0.0003067652315286314 4.968821812242211e-26)
(-0.0002804215629558599 0.0003298391287606482 -2.977344520873651e-26)
(-0.0002898349613566871 0.0003420666708281 -1.051994657799568e-25)
(-0.0003123710319190881 0.0003627384242628449 1.567877457542118e-26)
(-0.0003206887885569632 0.0003804233632527245 5.793852007577367e-26)
(-0.0003357103793240408 0.0003982914869846798 -7.789859855465168e-26)
(-0.0003725146292579518 0.0004167920049764895 -2.587584044935614e-27)
(-0.0003914151428123122 0.0004383160528501389 2.708444637773016e-26)
(-0.0004055446023432786 0.0004603755051095155 3.329740537115015e-27)
(-0.0004337719077512738 0.0004838925324466828 9.422358490490804e-27)
(-0.0004362948549229681 0.0005041601694485244 1.487772155709132e-26)
(-0.0004839198743902771 0.000552150781587081 -2.162626079277932e-26)
(-0.0004555284916683191 0.0005401544510828466 6.555836465151396e-28)
(-0.000530924912186891 0.0005989854176066881 6.136443404599055e-28)
(-2.403909945649042e-07 6.606125465673741e-06 -1.537046934987453e-25)
(-2.006652906339772e-06 2.420229479030065e-05 -2.065777397652959e-25)
(-6.168556401317335e-06 4.317170988814172e-05 -1.537837803999644e-25)
(-1.358573750528141e-05 5.942893080101959e-05 -5.561419994728048e-25)
(-2.300533343360749e-05 7.330064010989297e-05 -3.762690781619652e-25)
(-3.437672811264087e-05 8.312916129060942e-05 -3.919638195017296e-25)
(-4.628976233071855e-05 8.979839352381035e-05 2.875843947388095e-25)
(-5.860794101027375e-05 9.32270463705275e-05 -1.003575910695562e-25)
(-7.030246334185529e-05 9.494039321385224e-05 -8.615070845436202e-25)
(-8.113748684637821e-05 9.583839475184651e-05 -3.330223357791132e-25)
(-9.095213383430371e-05 9.720492853122135e-05 2.448510865607184e-25)
(-9.953636262890334e-05 9.995217814333158e-05 -8.353998917797315e-26)
(-0.0001074371811661536 0.0001048069382270963 2.894733472151016e-25)
(-0.0001143423509481857 0.0001122832154754046 1.039549855129267e-25)
(-0.0001213654866796954 0.0001224654623548691 -2.468929521368704e-25)
(-0.0001276732736455378 0.0001352495036922385 1.157807698522488e-25)
(-0.0001353807510082682 0.0001503195507459388 -3.751918135176191e-25)
(-0.0001421752163774776 0.0001669766133022297 7.922713765835264e-26)
(-0.0001519943678605659 0.0001851954668678369 -2.903939715871354e-25)
(-0.00015973409135252 0.0002032513678305356 -2.212375035694567e-25)
(-0.0001723338743226614 0.0002223842833221547 -9.345131926328999e-26)
(-0.0001814953151820855 0.0002397551696025852 1.177971370548975e-25)
(-0.0001964754169553983 0.0002582761957135577 -8.157532077702744e-26)
(-0.0002072809605895551 0.0002738462168539565 -1.258792664192728e-26)
(-0.0002237849008213383 0.0002913220017885162 5.690793661945008e-26)
(-0.0002360673952615499 0.0003060534978696098 -1.542842563534244e-26)
(-0.0002506184904719328 0.0003223614573911657 6.489830250574959e-26)
(-0.0002647467283384144 0.0003393697477327995 7.629504339560345e-26)
(-0.0002769484447394448 0.0003549429343935807 5.716589421124961e-26)
(-0.0002899931778127255 0.0003706397538245631 1.386098522952396e-25)
(-0.0003042321818351359 0.0003891061258745806 -7.532093334339812e-26)
(-0.0003125042726426709 0.0004086908663878741 8.411073429318966e-26)
(-0.0003246642212547601 0.0004337371401621347 -2.636144023356855e-26)
(-0.0003329777672890539 0.0004541027992209317 -3.161095629105512e-26)
(-0.0003460676273430249 0.0004779789731934426 9.257506468877798e-27)
(-0.0003581995023175408 0.0005002917508253041 -3.57053600074589e-26)
(-0.0003730258598395675 0.0005263389375062003 -2.275731591436013e-27)
(-0.0003855487130275327 0.0005508825185757569 2.222777413799109e-26)
(-0.0003966793685355382 0.0005769729952988161 3.469857515567032e-27)
(-0.0004114373956250207 0.0006047307877755334 -5.499305903783136e-28)
(-2.547272253865696e-07 7.408045234583395e-06 -6.661711154900458e-25)
(-1.971462577268864e-06 2.773885793453501e-05 -3.376313725292494e-25)
(-6.391194231000594e-06 4.888770007990942e-05 1.190839436492718e-25)
(-1.366325514167753e-05 6.789530518059962e-05 1.076166855600984e-25)
(-2.334403441103169e-05 8.346418330821672e-05 7.408603069242649e-25)
(-3.446587335574562e-05 9.479821417701244e-05 -4.508165284597147e-25)
(-4.661886906221619e-05 0.0001016638978890217 -4.807004926407251e-26)
(-5.852013677100381e-05 0.0001050849616254102 3.417230299207743e-26)
(-7.028191296742155e-05 0.0001058989181887977 -1.874062157690606e-25)
(-8.056992430632354e-05 0.0001059159887666631 2.663628484162666e-25)
(-9.025988980610529e-05 0.0001060740161401581 -4.996176616762214e-25)
(-9.821815995036902e-05 0.0001078798939911573 1.541116507464545e-25)
(-0.0001058445559159332 0.0001119048429359495 -4.463063474548463e-26)
(-0.0001121931756340619 0.0001189018090353118 -1.61834756527945e-25)
(-0.0001189142262731578 0.0001289235590556378 7.555359256252098e-25)
(-0.0001250836432535162 0.0001418982156548011 -2.47015808454658e-25)
(-0.0001323947061636722 0.0001574992380326538 1.171425231574015e-25)
(-0.000139698507406221 0.0001750404238095562 -1.370144808560622e-26)
(-0.0001488705822168139 0.0001941390967540013 4.727701047553016e-25)
(-0.0001578683794014844 0.0002135407508782501 1.247513407132264e-25)
(-0.0001696591601701272 0.0002335362256421825 -3.754570292266605e-26)
(-0.0001803811711001275 0.0002522153618116478 2.097973088631126e-25)
(-0.0001946011099685821 0.0002712304897449161 -1.189325067775299e-25)
(-0.0002067062649867919 0.0002879473302326204 5.139493828255318e-25)
(-0.0002220852809123909 0.0003054600121472595 -8.456912118092579e-26)
(-0.000234832948657062 0.000320980752797874 -6.858038932566045e-26)
(-0.0002493971801976481 0.0003370491838897355 -3.395949372106272e-26)
(-0.000262660848846026 0.0003525821391955087 1.456824545504402e-25)
(-0.0002754628768118967 0.0003680200558846386 -2.245678622976082e-26)
(-0.0002882394681863554 0.000384537458783848 -7.400142873243594e-26)
(-0.0003006770673272325 0.00040256881009389 9.023400302301421e-26)
(-0.0003115530178100661 0.0004214563979566214 -3.342691913095663e-26)
(-0.0003234666803033803 0.0004429598800892628 -3.13427800054304e-26)
(-0.0003333950031976162 0.0004637865020683446 5.430388710632563e-26)
(-0.000343919623607217 0.0004866059982632443 -4.64972197549457e-26)
(-0.0003547749084948113 0.0005102047137146492 2.910632229671203e-26)
(-0.000366001553886021 0.0005357127710182178 2.12286773264446e-26)
(-0.0003765965347803138 0.0005619355820581395 -9.006701381667955e-27)
(-0.0003878843998125602 0.0005879997835433355 -2.520216482064612e-27)
(-0.0003992220463348889 0.0006150729312345884 8.092456583069876e-28)
(-2.688381042722976e-07 8.234962585166145e-06 3.219518437286615e-25)
(-1.976310805584399e-06 3.130934449916308e-05 2.763909745111376e-25)
(-6.565270134080723e-06 5.483800540118046e-05 -2.005405106488472e-26)
(-1.38457342341148e-05 7.644072635291903e-05 -1.113322283526266e-25)
(-2.365842814904153e-05 9.387326713648004e-05 -2.0390322464852e-25)
(-3.475217140007139e-05 0.0001065696415219601 9.521639356255814e-25)
(-4.702708597168143e-05 0.0001137573227713268 4.889689047512123e-25)
(-5.881117425393956e-05 0.0001169823941183231 3.709700434186247e-25)
(-7.053427848370478e-05 0.0001169273525535919 9.968300262411541e-25)
(-8.055386169621871e-05 0.0001158923308777394 -1.656944459088001e-25)
(-9.003692955918882e-05 0.000114820559244841 4.378426145346584e-25)
(-9.757593012404182e-05 0.0001155827475611929 -1.218703149686276e-26)
(-0.0001048862084802028 0.0001187804824367354 2.419449452405176e-25)
(-0.0001107537285724503 0.000125333967157858 4.078141747482205e-25)
(-0.0001172062239079169 0.0001353125541791311 -3.9894096515707e-25)
(-0.0001229800876100805 0.0001486224185505559 1.165686042469729e-25)
(-0.0001301847960939992 0.0001649371891238627 4.244491366427487e-25)
(-0.0001373646386921129 0.0001833805446165079 2.940681586476864e-26)
(-0.0001465205697656354 0.0002035454194688191 2.003803954318397e-25)
(-0.0001558479478668973 0.0002241110144416448 -3.139916917084245e-25)
(-0.0001675016101393833 0.0002451055835259139 2.622068745859058e-25)
(-0.0001787988334310067 0.0002648933464666424 -1.534670717450282e-25)
(-0.0001926471126657727 0.0002845180630529571 1.047344434191703e-25)
(-0.0002051602259348256 0.0003019702251506947 -4.838035805396653e-25)
(-0.0002200171406248602 0.000319478948726549 -3.182338084371932e-26)
(-0.0002329028034906109 0.0003348835654316709 5.713527120716864e-26)
(-0.0002472591195063102 0.0003506100920395477 1.893923472348595e-26)
(-0.0002599168340848543 0.0003653940655305604 -1.316075576200017e-25)
(-0.000272841333270297 0.0003809096806704951 -4.284096950972022e-26)
(-0.0002847924943428047 0.0003968034197385602 1.265682421169856e-26)
(-0.000296760851583203 0.0004143209133179652 -5.984909435495246e-26)
(-0.0003076146654332136 0.0004324329126677024 -1.581056575823343e-26)
(-0.0003191111946773926 0.0004532048137439772 -4.642715157254134e-26)
(-0.0003295010623520229 0.0004744932394124745 -9.80517889855157e-26)
(-0.0003400370983226747 0.0004978137950625188 9.697696255322889e-26)
(-0.0003512547575591767 0.0005220105560521165 1.60403726689782e-26)
(-0.0003626416505410503 0.0005479298626388774 -4.624794373320085e-26)
(-0.0003745023970605407 0.0005737823046463463 1.599260268679128e-26)
(-0.000386488722262971 0.0006005548002293942 3.201254152512393e-27)
(-0.0003989568815904848 0.0006266806509530969 -1.058268716910202e-27)
(-2.819659962629072e-07 9.09975189289633e-06 4.773053774697942e-25)
(-2.012604360782532e-06 3.491861807626438e-05 3.973002114718684e-25)
(-6.742977275374491e-06 6.095147576525591e-05 -8.188138210104013e-25)
(-1.412238803664361e-05 8.499187477201634e-05 5.505064433477783e-26)
(-2.400535765875248e-05 0.0001043604653973481 -1.197485326409153e-25)
(-3.5173714401951e-05 0.0001182970319740596 3.205657306370678e-25)
(-4.754349737983007e-05 0.0001258386551378218 -5.157335245697854e-25)
(-5.936941807692226e-05 0.0001287322270188922 1.466925957028547e-25)
(-7.106461540466089e-05 0.0001277811083674362 -5.907378376089058e-25)
(-8.097047177571198e-05 0.0001255709631055201 4.197073048328026e-25)
(-9.025466172621188e-05 0.0001232252292977813 3.034334213995124e-26)
(-9.751067368416425e-05 0.0001228583587257527 -2.519381964990159e-25)
(-0.0001044844757643918 0.0001252074009588036 -2.325993859060969e-25)
(-0.0001099896950083635 0.0001313148629222286 -4.849555482507452e-25)
(-0.000116097364634817 0.0001412749439091026 -8.608540198127504e-26)
(-0.0001215729293918846 0.0001549767524364977 -4.47829973792857e-27)
(-0.0001285649661569251 0.0001720408476288886 -3.912818153331306e-25)
(-0.0001356351916102052 0.0001914776532751016 -7.153476843671732e-25)
(-0.0001447346201403445 0.0002127880892463303 -7.437433249244898e-26)
(-0.0001541948131359256 0.0002345668110410492 1.65980336256163e-25)
(-0.0001657655524202626 0.0002566171546744676 -1.079259817633113e-25)
(-0.0001773910269246945 0.0002774579690410149 -1.745690262595094e-25)
(-0.0001909490323064861 0.0002976274281806937 6.945891862757805e-26)
(-0.0002037528855015396 0.0003156702057857617 4.925540697077209e-25)
(-0.0002181551451028026 0.0003330708347316632 6.232752771352365e-26)
(-0.000231041146246653 0.0003484244135831555 9.977883328809567e-26)
(-0.0002449546734091313 0.0003637801853664764 1.560686476597389e-25)
(-0.000257158462612126 0.0003780593847439367 -1.932801145088155e-25)
(-0.0002697588415087843 0.0003931650485469891 5.527779979796214e-26)
(-0.0002810794218578158 0.00040847009047507 -6.745614112568675e-26)
(-0.000292528882064562 0.0004255156712756185 -7.621757761832487e-27)
(-0.0003029504366394996 0.0004433965780976479 1.877197314438601e-26)
(-0.0003137610226532283 0.0004638511747413594 1.278982503980479e-25)
(-0.000324061548311395 0.0004853592389205404 3.22004498671131e-26)
(-0.0003344938059087219 0.0005089189266484424 -4.188034676422588e-26)
(-0.0003457444519284102 0.0005333927607172255 4.030042093794183e-27)
(-0.0003571583427017854 0.000559600098660754 9.414983471480336e-27)
(-0.0003693595975669952 0.0005857171078044131 1.45682770149831e-26)
(-0.0003820144057248343 0.0006132563489152353 5.9754637130358e-27)
(-0.0003950536904231885 0.0006394077992314799 1.866972715115099e-27)
(-2.929730043214561e-07 9.998676317973845e-06 -1.028655473072617e-24)
(-2.06532713722804e-06 3.859758532803417e-05 -1.202955245596175e-24)
(-6.936746724753497e-06 6.721148064837022e-05 8.828111044788027e-25)
(-1.447437869997149e-05 9.357896277704596e-05 -4.207906719949152e-25)
(-2.438660706668519e-05 0.0001149803700056168 1.987610412142114e-25)
(-3.567805468071279e-05 0.0001301231224651216 -4.131413598729548e-25)
(-4.813624072451243e-05 0.0001380654859123269 3.177866294942601e-25)
(-6.011056526739864e-05 0.0001405519911075012 -1.404979697533862e-25)
(-7.185079187786466e-05 0.0001386486009449986 1.533427311624063e-25)
(-8.178167671352224e-05 0.0001351401609640962 -5.29368502966e-25)
(-9.091746460974541e-05 0.0001314509932367922 3.516565044976505e-25)
(-9.80011537588687e-05 0.0001298642101104947 3.268207911320674e-25)
(-0.0001046209515216526 0.0001313348765438409 -6.436581570301811e-25)
(-0.0001098069208190388 0.0001369812439971089 5.217555143749242e-25)
(-0.0001155393116960242 0.0001469574476600848 -2.123865865765582e-25)
(-0.0001207332408744145 0.0001611267958948252 8.485646005446922e-26)
(-0.000127431316043042 0.000179028265345958 -1.203125245792995e-26)
(-0.0001343589402759297 0.0001995615927596035 5.028039525359365e-25)
(-0.0001433654082904775 0.0002221215190107636 -5.679611120908263e-25)
(-0.0001528998789354173 0.0002451862006434061 2.986857616924967e-25)
(-0.0001644809865527644 0.0002683687299915332 2.514019467271792e-25)