/*--------------------------------*- C++ -*----------------------------------*\
| =========                 |                                                 |
| \\      /  F ield         | OpenFOAM: The Open Source CFD Toolbox           |
|  \\    /   O peration     | Version:  2206                                  |
|   \\  /    A nd           | Website:  www.openfoam.com                      |
|    \\/     M anipulation  |                                                 |
\*---------------------------------------------------------------------------*/
FoamFile
{
    version     2.0;
    format      ascii;
    arch        "LSB;label=32;scalar=64";
    class       surfaceVectorField;
    location    "1";
    object      ddtCorrDdt0(Uf);
}
// * * * * * * * * * * * * * * * * * * * * * * * * * * * * * * * * * * * * * //

dimensions      [0 1 -2 0 0 0 0];

internalField   nonuniform List<vector> 
35915
(
(-1.567319035425049e-06 1.528546609586269e-06 -1.054183303087256e-25)
(-7.632471562349021e-07 1.569471255768839e-06 1.282016152682391e-26)
(-6.728203265555331e-06 2.071609853671578e-06 -9.268357056361108e-26)
(-1.135319451757569e-06 5.165901560979666e-06 1.188998396851889e-25)
(-1.436412535250739e-05 3.89003376060631e-06 -3.174823468983615e-26)
(-1.011878144915628e-05 7.644054064279231e-06 1.133169184027283e-26)
(-2.480435202984289e-05 5.727433539339939e-06 7.000244728111298e-26)
(-1.930380140734143e-05 1.045123779794147e-05 5.348700363457389e-26)
(-3.76557601342025e-05 7.188407166710522e-06 7.489351973178364e-26)
(-3.034782001870985e-05 1.28655408081122e-05 7.336177977912589e-26)
(-5.336358064184109e-05 8.215379961385951e-06 -6.121010362965571e-27)
(-4.402688163278109e-05 1.572495836103392e-05 -2.374485291636087e-26)
(-6.977552757339188e-05 9.004733390839798e-06 2.480992250954864e-26)
(-5.943680224406617e-05 1.64321696016848e-05 3.082961095234654e-26)
(-8.747535289247715e-05 9.700417769326691e-06 3.326460423632146e-26)
(-7.573962862662698e-05 1.772283098476417e-05 2.502880491606181e-26)
(-0.0001068208034475716 1.066613180522006e-05 1.343597354144309e-26)
(-9.327822433897604e-05 1.937130850159884e-05 7.342521099555921e-27)
(-0.0001284463463802849 1.263501551430106e-05 -6.110744537147985e-26)
(-0.0001121984864842907 2.165390100551141e-05 -4.229465799543148e-27)
(-0.0001537506717187953 1.424792818513162e-05 -6.674619473186727e-26)
(-0.0001337656294173513 2.533530380192252e-05 -1.708708636068475e-26)
(-0.0001819594616324041 1.454729595446038e-05 6.048285420432811e-27)
(-0.0001571921425944412 2.824204425095031e-05 -2.377516749010797e-26)
(-0.00021427150357503 1.614668240836489e-05 2.95963376227584e-26)
(-0.0001854214590739173 3.234764010635533e-05 9.512466366204515e-27)
(-0.0002510911256996282 1.921577064627149e-05 2.107834282385036e-26)
(-0.0002155100417973641 3.685686807142195e-05 5.97558922546651e-28)
(-0.0002933338031665 2.198241182026975e-05 5.666505001613346e-27)
(-0.0002508732474253531 4.228150065506283e-05 4.699120629450668e-27)
(-0.0003409681450157702 2.400438918563304e-05 3.513767780699294e-26)
(-0.0002907024247303588 4.767413183780743e-05 -8.597124570089573e-27)
(-0.0003933511593108182 2.499960910580995e-05 3.169951466630313e-26)
(-0.0003358175713910779 5.242376961277825e-05 -2.920044271482793e-27)
(-0.0004494924840994358 2.508023402717989e-05 5.735143998534312e-27)
(-0.0003853574454555652 5.618244411038699e-05 -4.033247487191219e-26)
(-0.0005088631178164817 2.454580474977245e-05 7.032016921439787e-28)
(-0.0004399935305264037 5.941215356511438e-05 -3.276738433673289e-26)
(-0.0005696623915219409 2.369777676411873e-05 -1.641061381655713e-26)
(-0.0004982685135174398 6.084060082445104e-05 -3.318272820166555e-26)
(-0.0006311225255546636 2.318678174247795e-05 -1.661722904369359e-26)
(-0.0005626745841390889 6.150134635337856e-05 -1.374401004832944e-26)
(-0.0006948475444771028 2.259065812314057e-05 -2.528262118823782e-27)
(-0.0006286962229723532 6.37657159984084e-05 -3.877227036530711e-26)
(-0.0007588629484845202 2.147773887799848e-05 -8.660797061197093e-28)
(-0.0007008060907929295 6.405579973776577e-05 -2.605101083304663e-26)
(-0.0008218485111233144 2.125434517239412e-05 -5.979653261623507e-27)
(-0.0007709311834642998 6.302527828479454e-05 -1.891738150442259e-27)
(-0.0008869364131742737 2.188176080484813e-05 -3.564719600505719e-27)
(-0.0008463330388251247 6.512722776940306e-05 7.682833018827997e-27)
(-0.0009527515489578281 2.149805076202484e-05 -6.54907175861258e-29)
(-0.0009268465283369771 6.585373731451651e-05 6.286069332819787e-27)
(-0.001018498331102755 2.021708655955683e-05 4.965613634884347e-27)
(-0.001009520289231694 6.578488537275178e-05 -2.153576386310459e-27)
(-0.001085359188074487 1.865469136318854e-05 1.511400108338997e-27)
(-0.001097232981952181 6.689821385574493e-05 1.25795942013391e-26)
(-0.001153289773350304 1.669605965516952e-05 -1.00910723936408e-27)
(-0.00118660526370132 6.796741434020751e-05 4.557107668136295e-27)
(-0.00122230440530847 1.466297178144536e-05 3.986367680892448e-27)
(-0.001280821229231139 6.905073830764499e-05 -2.010620066454208e-27)
(-0.00129282183636914 1.299023824471971e-05 8.730213377411319e-28)
(-0.001377141971268739 7.055304113630927e-05 5.377122709801449e-27)
(-0.001365548917647803 1.188454988129665e-05 2.548772266681004e-27)
(-0.001478585954400734 7.276201254107075e-05 8.160909775857675e-28)
(-0.00144139028500166 1.102514385239632e-05 7.289715056270525e-28)
(-0.001583586511807877 7.587570687097884e-05 -3.077661772874447e-27)
(-0.001519976130293206 1.032232368212976e-05 -3.412459742189201e-27)
(-0.001695737779530349 7.861958813899253e-05 -1.01263352206383e-27)
(-0.001602222349347828 9.658542417351679e-06 -2.118743881130658e-27)
(-0.001810947237288378 8.227870873287686e-05 8.96921279249245e-28)
(-0.001686887068793341 9.115842124790525e-06 3.751935162471779e-28)
(-0.001934721364697451 8.469381521615916e-05 2.765205592561463e-27)
(-0.001774639564538346 8.669251038110663e-06 -5.218499415975786e-28)
(-0.002059411256496459 8.777401424424306e-05 1.602414283325116e-31)
(-0.001864731483216888 7.968205649104793e-06 -2.011017224299774e-28)
(-0.002193654776171133 9.011349149862761e-05 5.804988764163181e-28)
(-0.001958958504571239 6.431662542657174e-06 3.551573137742091e-28)
(-0.002329725219989817 9.423063364139395e-05 7.568911322525055e-29)
(-0.002475891166870645 9.701986779834329e-05 -4.769436492282257e-29)
(-0.002055934240191822 2.604507618792059e-06 -1.847804156466278e-23)
(-6.776768810309752e-08 5.03291146632691e-06 1.374286754417543e-25)
(-8.260850185456679e-07 1.638212406621882e-06 -8.993653925197314e-26)
(-5.16332873049353e-06 1.120489581500084e-05 1.581822260380869e-25)
(-5.404158552185466e-07 1.026315067836365e-05 -7.111197127115843e-26)
(-1.434195005992525e-05 1.447653565348558e-05 9.152069721675452e-26)
(-8.570049361454952e-06 1.682550532963292e-05 7.673404599382402e-26)
(-2.50524594083885e-05 1.6990386622739e-05 5.993541554714276e-26)
(-1.682711075357536e-05 2.11665292422945e-05 -9.042500836519679e-26)
(-3.672522883298797e-05 2.080686005754207e-05 -2.083603777285834e-26)
(-2.732423502036079e-05 2.454454702542032e-05 6.636514107469653e-26)
(-5.044718580318889e-05 2.370057671146276e-05 1.344042151567506e-26)
(-3.99187868395726e-05 2.945547915076344e-05 7.300214445822006e-26)
(-6.551178144785562e-05 2.507446436601043e-05 2.449686112853564e-26)
(-5.418224542536819e-05 3.150716653363983e-05 -1.776476489311003e-25)
(-8.145949251763377e-05 2.729326918513151e-05 -1.018555444190293e-26)
(-6.814504263136554e-05 3.368364436872755e-05 -1.310070192360672e-25)
(-9.873813509846634e-05 3.023252544391102e-05 -1.450983297036776e-26)
(-8.55665234316541e-05 3.666508859663868e-05 -1.102656655964489e-25)
(-0.0001170710281562651 3.395256775821272e-05 6.025328756989143e-26)
(-0.0001018003031446657 4.00047621171938e-05 9.44348203479618e-26)
(-0.0001386387041020764 3.857391043028994e-05 4.816500499318518e-26)
(-0.0001187374847538367 4.692309187307641e-05 -2.642144832772592e-26)
(-0.0001600274132557501 4.445953919152948e-05 -2.073723736955421e-26)
(-0.0001370514869751222 4.965367578212008e-05 -1.394518880433754e-25)
(-0.0001871921451440442 5.140744499946991e-05 -1.747853526494871e-26)
(-0.000156889357481284 5.953738763124603e-05 2.384003977026261e-26)
(-0.0002154791274115202 5.901487180055879e-05 -1.281560093673695e-26)
(-0.0001779750379718377 6.517171416298755e-05 -1.130961380105044e-26)
(-0.0002482729864432953 6.708953942441661e-05 -7.649616662727582e-27)
(-0.0002021651984055321 7.51053506247936e-05 -5.508774391085163e-26)
(-0.0002855210812525062 7.514613487101796e-05 -3.386699808322146e-26)
(-0.000229302467444465 8.495500400774591e-05 1.460339595077381e-26)
(-0.0003278717674290546 8.271538663354759e-05 -6.318095699759119e-26)
(-0.0002599624912023361 9.480918467722674e-05 -5.407302471740056e-27)
(-0.0003756564945574359 8.997822436103436e-05 -7.664314227324679e-26)
(-0.0002944970038295499 0.0001040044542574608 2.303373665758664e-27)
(-0.0004297134636207073 9.605257008227214e-05 -6.630079759866063e-26)
(-0.0003335632421791847 0.0001135081817867916 -3.632051464446171e-26)
(-0.0004912400377993682 0.0001000344245401706 -3.53706973467387e-26)
(-0.0003770989472744811 0.0001224085947044998 -5.044608987025985e-26)
(-0.0005597020631514122 0.0001041370438717476 -4.053547982292426e-26)
(-0.0004288777799022891 0.000130006461820462 2.517450751424171e-27)
(-0.0006352698468948945 0.0001082530914294689 -6.289687366996359e-26)
(-0.0004845747745912936 0.0001393786832600206 -6.561028075075477e-27)
(-0.0007132207844560372 0.0001095172735725197 -2.719964308483357e-26)
(-0.0005470593757945835 0.000142053296711354 6.722399148205016e-28)
(-0.0007947661510675145 0.0001102375941055295 1.115825108068452e-26)
(-0.0006121010798126775 0.0001446188906644493 1.251642984323052e-26)
(-0.0008866595475325116 0.0001124420169115235 1.711793469505501e-26)
(-0.0006841455352623087 0.0001570702340229951 2.108305341252421e-26)
(-0.0009844286840939658 0.0001152591632653773 4.290145610631052e-27)
(-0.0007628988980830347 0.0001636739476169445 -1.683341189379313e-26)
(-0.001088888369992447 0.0001184809016996627 5.030904407166827e-27)
(-0.0008465478917207764 0.0001702968363486456 4.552246541724891e-26)
(-0.001198569920849759 0.0001220828207024842 1.567483221633771e-26)
(-0.000936662067183772 0.000176633156593003 -3.169310648961591e-26)
(-0.001314458891722398 0.0001261597355969227 3.572505806400499e-27)
(-0.001030897735719028 0.0001839108525794882 2.162842376243244e-26)
(-0.001436322129169255 0.0001307595907451686 -1.109934897303201e-27)
(-0.001131601951166543 0.0001909693138036312 1.287457354896026e-26)
(-0.001563143309335554 0.0001360819881460923 5.193346932285851e-27)
(-0.001237914969295846 0.0001974305902897495 7.960596664556196e-27)
(-0.001696863006892319 0.0001423177193280632 -5.180164384547606e-27)
(-0.001351777980471036 0.0002065386609895945 -4.22896905005802e-27)
(-0.001838247779975183 0.0001488740308890784 -4.925138971983042e-27)
(-0.001468358932270089 0.0002173183773281294 6.020066953660335e-28)
(-0.001986804613913526 0.0001558882735880728 3.782203653452943e-27)
(-0.001596936745759635 0.0002272346057971704 6.020460814027197e-27)
(-0.002143785222254956 0.0001623879992350334 6.081460284516686e-27)
(-0.001728036928482822 0.0002393179039672534 2.465959195522723e-27)
(-0.002307174729824279 0.0001681849690495459 2.338652665159361e-27)
(-0.001872447769020907 0.0002481396778458327 -1.59268457615572e-26)
(-0.002478794579411759 0.0001742032728108433 1.169576668841152e-27)
(-0.002017253491459269 0.0002594428681947438 2.0182202240222e-27)
(-0.002658174011531362 0.0001818604628735324 8.89432551548776e-28)
(-0.002174986661843092 0.0002695378760244429 -2.300207935647896e-27)
(-0.002848164005805442 0.0001915046946770455 -3.662250963075192e-28)
(-0.002336182321013457 0.0002842709306731531 -1.668711382979081e-27)
(-0.002508741873986278 0.0002981675187939584 -2.751789627466298e-30)
(-0.003049252826155723 0.0002012210172215894 1.889351480417483e-23)
(-1.477274878291263e-06 7.010609073924822e-06 -3.099911170339778e-25)
(-4.986525051336652e-07 3.117419794919522e-06 1.113425779620701e-25)
(-4.322571205701648e-06 1.545986709636395e-05 -1.848972983373024e-25)
(-2.180791781908076e-06 1.310906165444783e-05 -1.287094899588736e-25)
(-1.018356008695508e-05 2.298274236545803e-05 -1.092205505678564e-25)
(-6.138814141134969e-06 2.268667480810169e-05 -1.646177822139936e-25)
(-1.920749408823177e-05 2.873971540844262e-05 -8.277349979348451e-26)
(-1.383247768113712e-05 3.019072434037522e-05 9.366138434746836e-26)
(-3.105646799588012e-05 3.340544706000122e-05 1.614103147514913e-25)
(-2.352849801711942e-05 3.639428729002826e-05 -5.197950569538982e-26)
(-4.331456912702814e-05 3.719622331189193e-05 -1.14593984850856e-25)
(-3.58304143322042e-05 4.171488672841289e-05 -9.232381336179191e-26)
(-5.734275540123595e-05 3.992137554284869e-05 -3.223714223627482e-25)
(-4.846822373794488e-05 4.553760949634467e-05 2.321984774858451e-26)
(-7.232078447920844e-05 4.30609821316591e-05 -2.250187544456614e-25)
(-6.228783390494486e-05 4.866487988002773e-05 -2.319561684171871e-25)
(-8.838284136663856e-05 4.614951815376559e-05 -1.734345681195013e-27)
(-7.692851131528516e-05 5.273182241742645e-05 1.216811645321499e-26)
(-0.0001031784827605779 5.235731424594165e-05 7.785184172970797e-27)
(-9.193765267927544e-05 5.480641368408092e-05 1.897873033025992e-26)
(-0.0001180795403697626 5.72896002459422e-05 -2.193182503511601e-25)
(-0.0001041141444826614 6.183187111153321e-05 2.505604215295037e-26)
(-0.0001330250472342144 6.406107280900036e-05 -1.000897459273321e-25)
(-0.0001184382776780589 6.460840518931636e-05 -1.940786801685761e-26)
(-0.0001486258068436064 7.241108224432822e-05 3.169271222549092e-26)
(-0.0001308871434744159 7.514924290487472e-05 -9.161022600467558e-26)
(-0.0001648242985809229 8.026616592819013e-05 -5.437164675949967e-26)
(-0.0001441786065903719 8.138298196750632e-05 1.893181488138544e-26)
(-0.0001831159463462974 9.249519528816071e-05 -3.149493540126811e-26)
(-0.0001572209395819979 9.341181513029673e-05 -6.026127041552704e-26)
(-0.0002038021334114185 0.0001044908419996367 4.197840704701243e-26)
(-0.0001740956541922232 0.0001056578312035707 -1.70357607545064e-26)
(-0.0002269519941985939 0.000116014118441359 7.67700307837008e-26)
(-0.0001875999445650837 0.0001179778172658664 -2.248649743600752e-26)
(-0.0002519384225794298 0.0001271630938641932 7.990327784659508e-26)
(-0.0002090999290611584 0.0001290114721015833 -9.25549579155863e-27)
(-0.0002811189032730894 0.0001387165125367178 1.555835971203111e-26)
(-0.0002308625237872108 0.0001427113491793137 5.097360525677911e-26)
(-0.0003146847200578229 0.0001502270081567393 1.516851023410042e-26)
(-0.0002556515094919695 0.0001559989799732691 -1.796685153777891e-26)
(-0.0003532207217331945 0.0001626392040706662 6.432887163217398e-26)
(-0.0002843198217327612 0.0001685691589933964 4.238031376965589e-27)
(-0.0003971682237787789 0.0001703945934898528 8.727707921998189e-26)
(-0.0003168963800857856 0.0001833548203715094 1.300330255874638e-26)
(-0.0004458575868446243 0.0001744327189081635 5.267546491242174e-26)
(-0.0003521032716260762 0.0001907733924380832 -3.803430535286154e-26)
(-0.0005015140528264397 0.0001892845291356866 2.072851312877879e-26)
(-0.0003931841750929594 0.0002003080306339229 2.195599224743672e-26)
(-0.0005604676650298187 0.0002063571228327865 -1.725214677964022e-26)
(-0.000438523306446331 0.000216058488338217 -2.543983481199578e-26)
(-0.0006252075975293906 0.0002161745679004953 2.302580269301347e-26)
(-0.0004865148293746417 0.000228450361450436 -1.106303186302389e-26)
(-0.0006948642313572316 0.0002248684799333231 7.274860524166991e-27)
(-0.0005380153991012635 0.0002399917757086417 2.043601731562411e-26)
(-0.0007690741566430105 0.0002341629477178678 -2.827688416234914e-26)
(-0.0005931863937232981 0.0002508830615189017 2.356840568559867e-27)
(-0.0008481166030478266 0.0002442036343048024 3.052105837043117e-26)
(-0.0006514202501082826 0.0002629949052210554 -8.793794036962723e-27)
(-0.0009337883298382288 0.0002528684993074987 2.212999564645033e-26)
(-0.0007130301342950755 0.0002766843050296956 1.998050855291947e-26)
(-0.001026104638201146 0.0002625828910157525 -1.350316193268751e-27)
(-0.0007809896885963481 0.0002897917082026199 -5.212166661163021e-27)
(-0.001123806626463565 0.0002762242002429706 1.208052202495154e-27)
(-0.0008545895769214753 0.0003042869972064682 -9.730376082993653e-28)
(-0.001227115395795913 0.00029106389597825 1.103496570523291e-26)
(-0.0009304352901442509 0.0003206747486224751 2.16046448643575e-26)
(-0.00133773474403889 0.0003069191221570676 4.794697616035749e-27)
(-0.001013894441517861 0.0003379028725699212 -6.939202145321582e-27)
(-0.001457911220813868 0.0003230308303079676 -1.885466796395654e-26)
(-0.001099842109893338 0.0003595441738804584 -3.986674327300715e-28)
(-0.001582263852054994 0.000338535506124652 -1.577500246241388e-26)
(-0.001194719933323116 0.0003725403866085319 -1.324647071920555e-26)
(-0.001713180564330848 0.0003530605674552083 -1.333341031592325e-27)
(-0.001292421094165828 0.000390401886927663 5.244710204651583e-27)
(-0.001852876099984216 0.0003682557400016299 -4.732385347609985e-27)
(-0.001398236604662926 0.0004092776935004391 9.054865343334888e-28)
(-0.001997554772332525 0.0003843438503369143 -1.309626630352578e-27)
(-0.001509794317667214 0.000428971852158304 -1.124629728424633e-27)
(-0.001625294530440472 0.0004551506565286912 2.65130431425744e-28)
(-0.002154474473411674 0.0003992843438231329 3.948121091803899e-23)
(-1.10469267257843e-06 9.005567350972446e-06 2.03066724188536e-25)
(-3.328440493087261e-07 4.222942063379675e-06 -1.885717637210345e-25)
(-3.861747587730105e-06 2.006897892567476e-05 -1.533603696780871e-25)
(-2.29228985771722e-06 1.586701562724137e-05 1.128550396455577e-25)
(-9.932172323165539e-06 2.980401532361949e-05 3.223934582335011e-26)
(-5.699934566353624e-06 2.875756942561247e-05 -2.439768876023424e-25)
(-1.788408838678954e-05 3.778130843113845e-05 1.262047990508882e-25)
(-1.397799295423332e-05 3.814289023869333e-05 1.893961499406855e-25)
(-2.890608528799506e-05 4.443461131639272e-05 -2.704568455775094e-25)
(-2.243310762397663e-05 4.74164803061238e-05 -1.916894826370689e-25)
(-4.041596370952141e-05 4.976531881962148e-05 4.239099898567887e-26)
(-3.524877748807235e-05 5.322508747619361e-05 -2.319009964273147e-25)
(-5.40074940962108e-05 5.375824693864979e-05 1.025120461344807e-25)
(-4.593734664183955e-05 5.912977824718024e-05 -8.200453928951949e-27)
(-6.697509248461255e-05 5.734216720464824e-05 5.937534278831121e-27)
(-6.13248528856555e-05 6.163362933163838e-05 6.661996132840137e-26)
(-8.010835016744966e-05 6.073225268223814e-05 3.108209271500385e-26)
(-7.147832709532178e-05 6.586681858764016e-05 9.661518288565832e-26)
(-9.322499711552481e-05 6.439219203644241e-05 3.975410508948386e-26)
(-8.674108524600786e-05 6.792565569437875e-05 -1.965372775778309e-26)
(-0.0001042960458254225 6.931171636596625e-05 2.45237714124403e-25)
(-9.52699652205896e-05 7.290637526913961e-05 1.603491867463698e-25)
(-0.0001166228449737645 7.578659219113822e-05 -2.849188722460118e-28)
(-0.0001088818750511309 7.693975422847136e-05 1.154772040374834e-25)
(-0.0001261515727232821 8.382247437518498e-05 -1.092660275747228e-25)
(-0.0001158549597434777 8.468352244585035e-05 -1.561174106352246e-25)
(-0.0001373447444862506 9.358514745423405e-05 1.386294094488123e-26)
(-0.0001281607288512882 9.258296589161233e-05 -9.390076333575985e-27)
(-0.0001477583612456694 0.0001053349341875145 -4.239726410853019e-26)
(-0.0001339550682948222 0.0001038334019997574 5.955292950427848e-26)
(-0.0001583184167923268 0.0001181459580735835 -7.660866485198985e-26)
(-0.0001479908671601092 0.0001162271466258925 4.688114420022275e-27)
(-0.0001705733796083338 0.0001309118097653897 -1.008401315567309e-25)
(-0.0001517973801648595 0.0001302432974167297 -6.790072253532893e-26)
(-0.0001872554627255172 0.0001449281032706836 -3.675595290680381e-26)
(-0.0001689958576968976 0.0001457056140484727 -1.348783284024638e-26)
(-0.0002048566400021654 0.0001603066835049854 7.673245068115634e-27)
(-0.0001787504320766223 0.0001603260199051788 2.256385849511544e-26)
(-0.0002259503379655517 0.0001751939219519318 -3.603500024734634e-26)
(-0.0001981490358106418 0.0001771077335894555 4.672152223337874e-26)
(-0.0002474087510110112 0.0001901736156061515 -4.598334424120965e-26)
(-0.0002107312715940657 0.0001900440593302045 -1.559090618123976e-26)
(-0.0002721063964217746 0.0002038618334856624 -1.092740873477392e-25)
(-0.0002356403685520827 0.0002080704854508914 -1.452629895944291e-26)
(-0.000298187429911588 0.0002161071952934351 -6.594413225524457e-26)
(-0.0002505776434516987 0.0002168738608036947 1.658088150127894e-26)
(-0.0003335902691794867 0.0002284800945703613 -2.21545523495614e-26)
(-0.0002817194391929946 0.0002357318938912288 1.957169420123372e-26)
(-0.0003626292229065722 0.0002419359610174581 -1.857040277747137e-26)
(-0.0003015514248974955 0.0002451196899495433 -5.40111015584416e-26)
(-0.0003999007461519485 0.0002559657252138868 -1.596428910113021e-26)
(-0.0003362573449453402 0.0002657455840632306 3.978535010399434e-26)
(-0.0004369700108099765 0.0002688435937447627 1.580132141777945e-26)
(-0.0003538965777520631 0.0002770859761090137 -8.619003156010979e-26)
(-0.0004752990716767492 0.0002814641936699872 2.238227339171841e-26)
(-0.0003928281145398076 0.0002892381710449477 2.362977176298602e-27)
(-0.0005159599583175834 0.0002961087707950757 -2.349826180604041e-26)
(-0.0004260988668425546 0.0003036829316061659 1.718778201667404e-26)
(-0.0005604404823758005 0.0003127058543662981 -1.070583609929295e-26)
(-0.0004602865973017242 0.0003211930033116331 -3.40770631931778e-26)
(-0.00060940795991411 0.0003299899599492424 -5.497407466566861e-27)
(-0.0004978335149649983 0.0003387884514671909 -2.120521890986653e-26)
(-0.0006623633725247733 0.0003479004486297983 1.960178750923389e-26)
(-0.0005376477395919882 0.000357272628315014 1.026356876692443e-26)
(-0.0007168181432617782 0.0003671120746697336 2.621092380431578e-27)
(-0.0005783352928338793 0.0003751605113454997 -1.87238535606188e-27)
(-0.0007753820857649839 0.0003895158077662253 -1.290204245789828e-26)
(-0.0006203297101088706 0.0003964985287252589 -1.688172237268731e-26)
(-0.0008374902117030986 0.0004064172375360366 7.302382006967305e-27)
(-0.0006648400715973375 0.0004216843099429304 -4.824712248319491e-27)
(-0.0009054892129210076 0.0004211690867506667 9.608215485974966e-27)
(-0.0007123174177696885 0.0004405700636410251 2.583919612464188e-27)
(-0.0009766057784295849 0.0004447611134766752 7.519995265779466e-27)
(-0.0007641362522394083 0.0004615422243262586 -9.16087124010367e-27)
(-0.001056082404073326 0.0004694338229646728 5.069385771902118e-27)
(-0.0008207186655277649 0.0004887711672108866 1.366922032217154e-27)
(-0.001137080232581376 0.0005014830210057454 6.757592089551256e-28)
(-0.0008818801639704262 0.0005100013389731141 6.040451781863129e-28)
(-0.0009414873756812134 0.0005448357624975184 -2.472948939351169e-28)
(-0.001226731544416807 0.0005313081005495145 1.037386370697259e-23)
(-1.038569856829164e-06 1.122470388416449e-05 -2.621608368284819e-25)
(-2.878646389665542e-07 5.264590498334675e-06 1.479821437116826e-25)
(-4.154501156546088e-06 2.472495737093898e-05 7.161569663361855e-26)
(-2.288274789243691e-06 1.898495999589253e-05 2.562869181460864e-25)
(-1.004624134163262e-05 3.712622150496814e-05 -8.142305308900057e-26)
(-5.905709664738937e-06 3.465076031028012e-05 2.001649784106982e-25)
(-1.836149048866735e-05 4.772515795799399e-05 -1.539168677605529e-25)
(-1.408544010195346e-05 4.645924667885777e-05 1.15963017698661e-25)
(-2.895508049346513e-05 5.618164772785813e-05 -1.481885564140321e-25)
(-2.260159934704574e-05 5.801108754021796e-05 4.131614742288179e-26)
(-4.073432421822314e-05 6.259248098262768e-05 -2.744465076672834e-25)
(-3.52600623948514e-05 6.500533852701304e-05 1.075705263816077e-25)
(-5.331648334762471e-05 6.707473759041128e-05 -3.206584622187136e-26)
(-4.585555274757772e-05 7.171313680576383e-05 -3.359390125700199e-25)
(-6.597094308319158e-05 7.030935069104533e-05 1.723130514577325e-25)
(-6.042550116682021e-05 7.428958806971722e-05 8.907612740342422e-26)
(-7.793562854677621e-05 7.313858707092129e-05 4.425224884235174e-26)
(-7.050798363603759e-05 7.783347129158555e-05 2.639852143901142e-25)
(-8.928017779367328e-05 7.61507590985635e-05 9.916014805827835e-26)
(-8.430666157908633e-05 7.927270654256864e-05 9.191365141435834e-26)
(-9.929979926932938e-05 8.032056469280847e-05 2.979139964942558e-26)
(-9.235853278208264e-05 8.292916489318867e-05 -3.794049463907419e-26)
(-0.0001088801481211737 8.571614444766114e-05 -4.082596013273393e-26)
(-0.0001043511731831198 8.652399167013152e-05 1.504170078461379e-26)
(-0.0001171411393930564 9.356230344040039e-05 -5.68116565330609e-26)
(-0.0001103947424972214 9.294921461752578e-05 5.673668437155001e-26)
(-0.0001256411487067369 0.0001033128316579422 3.59764700200189e-26)
(-0.0001209478137437795 0.0001010885411073593 -5.75368509825573e-26)
(-0.000133681394898865 0.0001151750473293527 1.065875693813372e-25)
(-0.0001259336839856908 0.0001118801765529785 8.300996578403328e-26)
(-0.000142037210648085 0.0001283463517666323 1.470877729417949e-26)
(-0.0001361762907311833 0.0001245904986866011 5.074409426055515e-26)
(-0.0001506814481537299 0.0001438043371330239 2.195240867297204e-26)
(-0.0001411910831303615 0.0001388961183050111 9.469709972571281e-26)
(-0.0001601176682822384 0.0001596289176747614 4.701727522682878e-26)
(-0.0001521200066718447 0.0001551514440656942 1.212051355702389e-25)
(-0.0001713720881122024 0.0001765357546881686 6.416676561191548e-26)
(-0.0001586923248645459 0.0001715911699619383 -1.324575555695408e-26)
(-0.0001838149169405226 0.0001916899676856717 7.127769912277582e-26)
(-0.0001720571259890566 0.0001895623978624437 9.117263564732361e-26)
(-0.0001985258955135043 0.0002081610894681815 1.898447383369375e-26)
(-0.0001804100837741153 0.0002047680351760223 5.203293954858974e-26)
(-0.0002140337325136914 0.000222133936808735 1.198266398974606e-25)
(-0.0001976507982235562 0.0002235924225432121 2.777389517354898e-26)
(-0.0002331741177988442 0.0002378621187737076 1.060798911098651e-25)
(-0.0002082072167408159 0.0002360294960558225 8.853183065446517e-26)
(-0.0002528662670775103 0.0002509894070331478 -1.292123803221402e-26)
(-0.0002301402831119512 0.0002554403336098138 -1.030663320951227e-25)
(-0.0002722889332543762 0.0002641306400939136 6.400172935599069e-27)
(-0.0002412172892706292 0.0002645596212451497 7.741337912489712e-27)
(-0.0002918022516624023 0.0002824784338628805 -3.063344152783842e-26)
(-0.0002694286171202025 0.0002852770177784366 -1.404402124733922e-26)
(-0.0003119132229306192 0.0002962207219730017 -1.007037712946642e-25)
(-0.0002745295145546376 0.0002972158430104931 -3.36518782420656e-26)
(-0.0003417004061883496 0.0003114000846012447 -3.210225147495475e-27)
(-0.0003056652906947916 0.0003190451546333808 -5.681723633595816e-26)
(-0.0003692389717007973 0.0003274965867149638 6.459868544263863e-27)
(-0.0003238806613154727 0.0003312418922599312 -1.451461508497115e-26)
(-0.0003980794257510655 0.0003464022059053663 -4.489524619577519e-26)
(-0.0003483349091506561 0.0003500544427788611 -2.429102149646179e-26)
(-0.0004276081006487507 0.0003656224217360571 -5.437914810056577e-27)
(-0.0003669452281947995 0.0003683386388038867 1.712494706877249e-26)
(-0.0004543076570123113 0.0003831303822336538 -1.128451532728148e-26)
(-0.0003888244042566718 0.0003839940627510997 -3.231046554314805e-26)
(-0.0004806259381852321 0.0004028025743738893 -2.145637271911065e-26)
(-0.0004208445476831832 0.0004015008330425202 -1.936488574993854e-26)
(-0.0005102323289407772 0.0004273586138772106 -8.808407373658254e-27)
(-0.0004438715583178474 0.0004261271389213753 9.789804090808142e-27)
(-0.00053849644950834 0.0004541162600657208 -9.61470663699708e-27)
(-0.0004655247731108527 0.0004499702801028793 -3.887516838559453e-27)
(-0.0005727095112176241 0.0004781356435998986 -1.618115949582075e-26)
(-0.0004949714648520945 0.0004748024392056364 8.738886429838547e-29)
(-0.0006058028139079346 0.0005022248692082816 -1.5224260678207e-26)
(-0.0005131710569069837 0.0004946486793235242 -4.77232558129336e-27)
(-0.0006512718418801413 0.0005286917290700387 -3.089596797356214e-27)
(-0.0005562034191938059 0.0005342565114978908 -1.40807839902181e-26)
(-0.0006825555003886786 0.0005534837875176818 -3.117695733887799e-28)
(-0.0005622866944613328 0.0005412696463133802 4.705344383840345e-28)
(-0.0006184941294906037 0.0005827498515299623 -1.546230802187973e-28)
(-0.0007204333447730489 0.0005778437514243343 1.396716778638469e-22)
(-8.957842880102621e-07 1.318508469290029e-05 6.709813828201098e-25)
(-2.690212892868307e-07 6.162009674017536e-06 4.444160202397648e-25)
(-4.317498892230298e-06 2.896819348123706e-05 3.668126959507636e-25)
(-2.146307707230331e-06 2.24089176340579e-05 5.782320602925e-26)
(-9.963082220727743e-06 4.39715557168459e-05 3.884652252180662e-25)
(-6.177431078878045e-06 4.029845632377795e-05 1.346671599843627e-25)
(-1.854182273755026e-05 5.675907105724096e-05 3.135986851997359e-25)
(-1.383680379973341e-05 5.503990711851442e-05 -9.157871175231793e-26)
(-2.868740376140627e-05 6.68943004552275e-05 2.772748750647651e-25)
(-2.301043680107619e-05 6.815847281836224e-05 -4.96651569961744e-26)
(-4.070011465928639e-05 7.419633843569263e-05 1.395353819325361e-26)
(-3.476311673474217e-05 7.701989259619662e-05 -5.451430356256937e-26)
(-5.269723287968326e-05 7.902181046150845e-05 -2.335846096896376e-25)
(-4.634519928922906e-05 8.371223081308162e-05 3.747716648465697e-27)
(-6.529703632401459e-05 8.194243429161319e-05 1.787931859483077e-25)
(-5.927779458386058e-05 8.689167763097927e-05 -1.603781238393059e-25)
(-7.665384992985721e-05 8.408123015032249e-05 3.156793478328672e-25)
(-7.064408050997256e-05 8.919296167762193e-05 -1.362108696943209e-25)
(-8.770605101535247e-05 8.619786293767878e-05 -3.759364316545621e-26)
(-8.224927186245843e-05 9.032812453940026e-05 -1.314631159870131e-25)
(-9.719029679040239e-05 8.931949102397233e-05 -5.056759998835901e-26)