/*--------------------------------*- C++ -*----------------------------------*\
| =========                 |                                                 |
| \\      /  F ield         | OpenFOAM: The Open Source CFD Toolbox           |
|  \\    /   O peration     | Version:  2206                                  |
|   \\  /    A nd           | Website:  www.openfoam.com                      |
|    \\/     M anipulation  |                                                 |
\*---------------------------------------------------------------------------*/
FoamFile
{
    version     2.0;
    format      ascii;
    arch        "LSB;label=32;scalar=64";
    class       volVectorField;
    location    "1";
    object      ddtCorrDdt0(U);
}
// * * * * * * * * * * * * * * * * * * * * * * * * * * * * * * * * * * * * * //

dimensions      [0 1 -2 0 0 0 0];

internalField   nonuniform List<vector> 
18114
(
(-5.067565402003053e-07 1.848671471384925e-06 -6.414750966719528e-26)
(-3.327160050162952e-06 1.208524547451883e-06 -1.466891638620201e-25)
(-9.716575319164128e-06 2.934716624072038e-06 -3.867796055180878e-26)
(-1.890716307376835e-05 4.845360311003289e-06 -2.481850669917318e-26)
(-3.063199707257907e-05 6.609513227685082e-06 1.648234299633488e-25)
(-4.500005594241535e-05 7.767303543011776e-06 -1.503641736698432e-26)
(-6.117386342382943e-05 8.663454810261895e-06 2.79439925046066e-27)
(-7.835239579451336e-05 9.346007696148913e-06 4.682545220402353e-26)
(-9.672809961913396e-05 1.005482174013704e-05 1.970375234402653e-26)
(-0.0001168547537704889 1.127743467894427e-05 7.168192967481876e-27)
(-0.000140294444767499 1.399258878622875e-05 -1.293831028807744e-25)
(-0.00016576396089982 1.450326019914706e-05 -4.109269219366563e-27)
(-0.000198034497679495 1.459131980786261e-05 1.620584284753457e-26)
(-0.0002308887555358255 1.770202752968235e-05 4.298683596949169e-26)
(-0.0002708473371047052 2.072949726141009e-05 -8.301561123949169e-28)
(-0.0003157090976068462 2.323531113250216e-05 1.216316781272512e-26)
(-0.0003662616907010794 2.477345308165224e-05 5.811219369957023e-26)
(-0.0004204740300985721 2.522575179031859e-05 5.286828970097948e-27)
(-0.0004785961061621439 2.493470343494594e-05 6.183459144811032e-27)
(-0.0005390539931665731 2.415689414678391e-05 -4.777057073542426e-27)
(-0.0006002901260564594 2.323864846932541e-05 -2.804417330917567e-26)
(-0.0006621992814272612 2.313490534987084e-05 -5.190282158600309e-27)
(-0.0007275243338544249 2.204640236081327e-05 1.337585182582644e-28)
(-0.0007896216123926489 2.090906797679969e-05 -1.865918149798147e-27)
(-0.0008541618399018571 2.159961615108707e-05 -1.009338922712185e-26)
(-0.0009196169645755632 2.216390017444347e-05 2.963951319922454e-27)
(-0.0009846131537284573 2.083219687270103e-05 -3.094933329294191e-27)
(-0.001051737687524633 1.960197253738459e-05 1.302616203968721e-26)
(-0.001118917358933985 1.770740712623589e-05 -1.000336375794229e-26)
(-0.001187118304031074 1.568470977153558e-05 7.98515069289005e-27)
(-0.001256820216565063 1.364123204993768e-05 -1.241591257170598e-29)
(-0.001328245724604625 1.233924331362066e-05 1.758458708671033e-27)
(-0.001402589719364725 1.142985593381777e-05 3.33908591645292e-27)
(-0.001479768777607705 1.062043168415932e-05 -1.881143180835624e-27)
(-0.001559984413568752 1.002421604028154e-05 -4.943776448727555e-27)
(-0.0016441195594491 9.292869383981767e-06 7.06288907081496e-28)
(-0.001729466251764369 8.938815862799169e-06 4.409810506320403e-29)
(-0.00181932589415257 8.399687236238693e-06 -1.087798013867272e-27)
(-0.001910354353966588 7.536726498000441e-06 6.855945951260553e-28)
(-0.002006303314903099 5.326601152593482e-06 2.472002898863686e-29)
(-1.019420114742651e-06 9.693032272269544e-07 1.143462281686293e-26)
(1.056677939591179e-06 9.096632177638728e-06 2.634227671388147e-25)
(-1.052102431384185e-05 1.331319915900996e-05 5.294165271836284e-26)
(-1.970059134658829e-05 1.563988872660271e-05 1.300997533996354e-25)
(-3.0063917293003e-05 1.834089979236961e-05 -1.02289432999403e-26)
(-4.305414363677004e-05 2.327283282713167e-05 -3.144313533572244e-26)
(-5.770036933844314e-05 2.412832914675297e-05 5.83239914529067e-26)
(-7.312769491570471e-05 2.602060395269964e-05 -9.330278972630011e-27)
(-8.982942557901936e-05 2.856593619979001e-05 -1.104083008733162e-26)
(-0.0001075435497600021 3.189911510653543e-05 -1.797883683416081e-26)
(-0.0001272384214703499 3.600602007455632e-05 1.384854334876069e-25)
(-0.0001486222436103901 4.114179991745022e-05 -4.215544803284411e-26)
(-0.0001728106370277256 4.777727754770727e-05 6.8097901393111e-28)
(-0.0002001338734108594 5.503761068522179e-05 -3.563805428961962e-26)
(-0.0002309020616122282 6.299212906963934e-05 1.000685832456737e-26)
(-0.000265699025863448 7.118694370723774e-05 -2.530609614527043e-26)
(-0.0003053771065243543 7.910531800663368e-05 -4.242790217625906e-26)
(-0.0003502449063799515 8.632544546234275e-05 -8.393401689988434e-26)
(-0.0004013953945966534 9.363099226348948e-05 -6.935226589672617e-26)
(-0.0004574878746179656 9.847413531309561e-05 -6.324932858703051e-26)
(-0.0005250642751055042 0.0001015946997639646 -7.492059724790374e-27)
(-0.0005951987690611851 0.0001066793737970009 -7.357890727716073e-26)
(-0.0006740938150572373 0.0001098267946751342 -5.221483775680619e-26)
(-0.0007522470931770471 0.0001092077377607663 -2.184443190884649e-27)
(-0.0008385109182373109 0.0001112674360397812 2.450094800632193e-26)
(-0.0009340831079400413 0.0001136165838947993 9.734919969615149e-27)
(-0.001034434764867479 0.0001169017293953661 -1.154629739589106e-27)
(-0.001142735949277265 0.0001200600614861258 1.121643962076277e-26)
(-0.001254301146131838 0.0001241055681411029 2.013322554082443e-26)
(-0.001374532434784495 0.0001282138921567121 -1.298821644504286e-26)
(-0.001497472286791423 0.0001333052792020502 1.076834832325536e-26)
(-0.001628935024330697 0.0001388586879997875 -3.816551849131762e-28)
(-0.001764592407753698 0.0001457767423820769 -9.97867413908259e-27)
(-0.001911716150831139 0.0001519713121339047 1.283967159715353e-28)
(-0.002061919684978117 0.0001598052284310063 7.436010922426117e-27)
(-0.002225333027374037 0.0001649707642796356 4.726909542452266e-27)
(-0.002389366346971455 0.0001713991685917212 -4.96043563490832e-29)
(-0.002567993960168334 0.0001770073725959665 2.388757747630081e-27)
(-0.002749106575379574 0.0001867135496043207 -6.098926873897717e-28)
(-0.002945489646909674 0.0001962958380300513 -1.225575027886867e-28)
(-6.330727413391321e-07 2.525947188500257e-06 -1.52962830543816e-25)
(-2.137724200878056e-06 1.149536112693215e-05 -4.670194515772638e-25)
(-6.619155033624491e-06 1.942443134697991e-05 9.722494018134581e-26)
(-1.395364720614271e-05 2.654109726518293e-05 -3.156661030446589e-25)
(-2.458455126287991e-05 3.093836553102802e-05 1.501191720529421e-25)
(-3.678343334579237e-05 3.587255642315263e-05 1.727014607641496e-25)
(-5.066412974040387e-05 3.851990949578226e-05 -4.018895128121704e-25)
(-6.316242781592921e-05 4.132285707259657e-05 -2.428533093300074e-25)
(-8.130371981131756e-05 4.479911951826576e-05 -2.071841947060288e-25)
(-9.605722584509175e-05 4.749992617622526e-05 2.037155597299047e-25)
(-0.0001102368037618656 5.721471044389041e-05 -1.881452442963913e-25)
(-0.0001254810936792948 5.736449486666782e-05 -2.5049126475976e-25)
(-0.000140968585021042 7.075765554632188e-05 5.031181239098503e-26)
(-0.0001558168798631044 7.406450857388655e-05 1.307360724352317e-26)
(-0.0001734291991865132 8.646782224098299e-05 -1.218169178835592e-25)
(-0.0001929069688978947 9.852256490928477e-05 5.882706959626201e-26)
(-0.0002145491409552331 0.0001104591139725649 2.512974037675181e-26)
(-0.000238750586684798 0.0001215691160114185 1.284103335653248e-25)
(-0.0002657328042673805 0.0001327570634998105 3.139621075317152e-26)
(-0.0002967119829867585 0.0001446759526260438 -2.794949472715409e-28)
(-0.0003326935047223562 0.0001557780541558756 3.061651885459346e-26)
(-0.0003739532773344769 0.0001695003443668783 9.804123171830793e-26)
(-0.0004200277228043268 0.0001712888313775367 7.651292446580349e-26)
(-0.0004719581543228222 0.0001775765953336388 2.883800050935905e-26)
(-0.0005297835480804253 0.0002009924536003323 1.261902418367347e-26)
(-0.0005917183991891056 0.0002117217817591377 -4.712332332712523e-26)
(-0.000658665053579603 0.0002206273436739929 9.317494119433606e-26)
(-0.0007305925464285934 0.000229109605881988 -7.862523460490631e-26)
(-0.0008074990213003885 0.0002392162795664492 2.20714742448823e-26)
(-0.0008886764972461292 0.0002491909793198424 3.897064374636227e-26)
(-0.0009783630152293043 0.0002565460095254781 5.289345227903685e-27)
(-0.001074626621307657 0.0002686197633588031 -7.989978437921126e-27)
(-0.001172131471452755 0.0002838286284347621 1.040608388863591e-26)
(-0.001282163664556918 0.0002982991554129743 1.166384758461639e-26)
(-0.001394160810424682 0.0003155390811607061 -2.074452948818741e-27)
(-0.001519569447357749 0.0003305225723289898 -3.563488421031657e-26)
(-0.00164514783828922 0.000346548432903802 4.084880459329749e-27)
(-0.001781986804953337 0.0003595726958663247 -6.751562764958231e-27)
(-0.001923265725507519 0.0003769387774437424 -2.713207870483456e-27)
(-0.002072001931766693 0.0003917489184368143 9.395462627334581e-29)
(-3.640811551992669e-07 3.613748710878646e-06 3.24586151045447e-25)
(-2.223644407088947e-06 1.439746777328096e-05 8.154726061200179e-26)
(-5.658279261335706e-06 2.574054687382558e-05 -3.882680701894734e-25)
(-1.371117302331117e-05 3.386752395006193e-05 4.527468856872758e-25)
(-2.247234166905201e-05 4.169512335703492e-05 -2.003373822610906e-25)
(-3.487731195401798e-05 4.717412394169058e-05 -3.405763290320783e-25)
(-4.627226434168064e-05 5.235653351042465e-05 4.253584350627205e-25)
(-6.141321229624171e-05 5.515997516986282e-05 -2.203344325408552e-25)
(-7.255327778471337e-05 5.952437183224213e-05 2.322095630247805e-25)
(-8.781807009594097e-05 6.19401433109308e-05 -1.700454318182186e-25)
(-9.799150232872634e-05 6.684424883339474e-05 2.495536976679797e-25)
(-0.0001113955033003184 7.177918954803407e-05 2.409217293898385e-25)
(-0.0001208057724487946 7.97939990583574e-05 -2.414916291769375e-25)
(-0.0001325404225122992 8.785095177983699e-05 2.295960748574544e-26)
(-0.0001410127934636623 9.931934355265622e-05 4.766272204899958e-27)
(-0.0001552844763020685 0.0001113505237615087 -8.956081196562023e-26)
(-0.0001606509341108128 0.0001249413900312879 -6.365651464082986e-26)
(-0.000179449527918062 0.0001368822257918556 -1.380237571634382e-25)
(-0.0001959925781473941 0.0001529739765223502 6.451187457312232e-26)
(-0.0002145914613249886 0.0001676393851164338 -4.916539715235951e-26)
(-0.0002359466682256504 0.0001827484526959168 -2.290460048683548e-26)
(-0.0002598401262860549 0.0001975987717856149 -6.906209289789171e-26)
(-0.0002841795891886036 0.0002101248876793941 -1.49486090045715e-25)
(-0.000314411097439738 0.0002220894948845919 1.75978420713949e-26)
(-0.0003472641237113667 0.0002348706859700485 -6.190695434660285e-26)
(-0.0003813124785974654 0.0002490012277464031 2.476615671012279e-26)
(-0.0004173671322731996 0.0002629302142818104 -5.669474200879974e-26)
(-0.0004557818052764154 0.0002747569645071604 8.829739677494475e-26)
(-0.0004953432294149242 0.0002881714142235569 -4.353286017630068e-26)
(-0.0005373857084042168 0.0003040461190603835 -3.46366055551676e-27)
(-0.0005836184941299649 0.0003213655816639681 -1.794801259752483e-26)
(-0.0006345548659019442 0.0003386143304518143 6.953199187541473e-27)
(-0.000688741646674601 0.0003571865592271765 3.225037723164223e-26)
(-0.0007456279624306881 0.0003770375827537102 -2.700819537806777e-26)
(-0.0008055263578032596 0.0004019940258693774 1.20411165286734e-27)
(-0.0008698735631434819 0.0004108404418421023 1.340065280291053e-26)
(-0.000939697685563549 0.0004314977248692597 5.815777949951842e-27)
(-0.001014489908652463 0.0004580244958224875 9.224212651478893e-27)
(-0.001096326595225572 0.0004808431435888638 9.145587784538751e-28)
(-0.001178590930392871 0.0005221228929141153 4.369596348917595e-28)
(-3.017202653696336e-07 4.958495634881351e-06 -7.198957461799311e-25)
(-2.361071451361428e-06 1.749097186010323e-05 1.955742091655898e-25)
(-5.741702217513506e-06 3.195899113416441e-05 -5.234285216894512e-26)
(-1.424489986145148e-05 4.229348941844312e-05 -1.105032625306278e-25)
(-2.239394339579229e-05 5.315685689876762e-05 -1.973304854658652e-25)
(-3.562028722937076e-05 5.920646289652024e-05 -9.904661341544845e-26)
(-4.560245433057773e-05 6.597851936782683e-05 -4.498464506521303e-25)
(-6.12364986127115e-05 6.817097158010322e-05 3.857148723522828e-25)
(-7.0403367158895e-05 7.244774312391842e-05 -4.108882683094431e-26)
(-8.566407694447533e-05 7.382944139038552e-05 1.295933471143532e-25)
(-9.254838959276435e-05 7.847208546348142e-05 6.872694119993469e-26)
(-0.0001063681979833286 8.216905033453592e-05 -9.144151931648094e-27)
(-0.0001109040849302584 8.926324356647827e-05 -7.250777645859435e-26)
(-0.0001237809749221412 9.786136666332149e-05 -4.11155326865398e-26)
(-0.0001268972836388332 0.0001087642987760091 1.130684914869394e-25)
(-0.0001406972144731408 0.0001215857965954514 1.001066458420905e-25)
(-0.0001429437902231795 0.0001351069061896686 -7.068911132210659e-26)
(-0.0001585421472081882 0.0001525017668173577 1.145939499082204e-25)
(-0.0001615082603988442 0.0001667560659852275 -2.055941466735504e-26)
(-0.000181706605371551 0.0001863154405661564 1.488929645147968e-25)
(-0.0001855158960780993 0.0001970644900796236 -6.337582841655065e-27)
(-0.000211440662016883 0.00021925768474022 4.430653577291703e-26)
(-0.0002169757860145337 0.0002250101824157674 1.953467591751904e-25)
(-0.0002490279044023133 0.0002507140503630933 1.681300575496456e-26)
(-0.0002558388790995196 0.0002512647559571815 -4.265548732877667e-26)
(-0.0002912023999805913 0.000276996518766488 5.545584189868259e-26)
(-0.0002904262696178188 0.0002879603419518797 -1.167227395708212e-25)
(-0.0003298747370888481 0.0003044810952803396 -8.468480044242853e-26)
(-0.000356854876342065 0.0003183190669741642 7.826436251039564e-26)
(-0.0003831879233065073 0.0003366740998572065 -6.534463558902022e-26)
(-0.0004120490442198791 0.0003561303053462951 -2.444585412855998e-26)
(-0.0004407411978517493 0.0003751145317880019 1.357002677712871e-26)
(-0.0004679296022015636 0.0003911462258622462 -3.613906012874368e-26)
(-0.0004950322057308207 0.00041445891667169 -6.773683889046523e-27)
(-0.0005241546193713645 0.000440258304961623 -1.084313102663911e-26)
(-0.0005547621931142662 0.0004679742096579835 -8.386282159702303e-27)
(-0.0005885758255009249 0.0004882970713407432 -2.397603727588917e-26)
(-0.0006269485151929551 0.0005161526618864424 -6.472483698960003e-27)
(-0.0006674349110491314 0.0005412307901459751 2.932901941152353e-28)
(-0.000704385055768637 0.0005657367802225933 -9.168293484111609e-28)
(-2.740282251280456e-07 5.767969621449311e-06 1.028505786333451e-24)
(-2.215436989263469e-06 2.060224898690209e-05 3.134568739957596e-25)
(-6.069635153589007e-06 3.733418107350993e-05 4.201685333845878e-25)
(-1.392589146298223e-05 5.060896559968244e-05 3.567619080161928e-25)
(-2.28091723673242e-05 6.290920534520795e-05 2.704354503360699e-25)
(-3.489975906374245e-05 7.087941889187432e-05 2.841143015237022e-25)
(-4.610857294716391e-05 7.751327719681628e-05 -2.562072991445181e-25)
(-5.961442941106878e-05 8.053035891154961e-05 -2.109619138513394e-25)
(-7.061253192522962e-05 8.335452194733171e-05 5.685483889921533e-25)
(-8.294917996421701e-05 8.480794795370208e-05 6.281024054867954e-26)
(-9.216860895382797e-05 8.758778556244666e-05 -1.379975526740334e-25)
(-0.000102334079445351 9.105120225993285e-05 3.686237493398199e-26)
(-0.0001098853282035731 9.683291941122026e-05 1.797793445164302e-25)
(-0.0001181145752115954 0.0001046340637404119 -7.392549695118071e-26)
(-0.0001249699993815512 0.0001150816745033826 5.299532611255824e-26)
(-0.0001316552739342351 0.0001277564396203216 1.766264404364127e-27)
(-0.0001394382717990795 0.0001426662064983138 2.592128038160431e-25)
(-0.0001456977597369866 0.0001586933838810184 1.279573757710879e-25)
(-0.0001558762715345265 0.000176461450736125 -5.885709374809607e-27)
(-0.0001624075261816952 0.0001932474240616281 3.357102720516669e-26)
(-0.0001753041399363959 0.0002118995325228876 1.100445207704996e-25)
(-0.0001838608027979954 0.0002278549990521523 1.114336322580479e-26)
(-0.0001994385073874651 0.0002458681367942668 -1.609691431929366e-26)
(-0.0002112525299489634 0.0002600830988225786 -2.208353224089043e-25)
(-0.0002265955719822261 0.0002783403540550838 5.541511205789621e-26)
(-0.0002476547272958027 0.000296312443362639 -8.290970596732413e-26)
(-0.0002586326531547006 0.0003067416399424327 4.968821588641465e-26)
(-0.0002814557343643124 0.0003298159246722569 -2.977344715833596e-26)
(-0.0002909063517815545 0.0003420437988148962 -1.051994632866011e-25)
(-0.0003134818196132991 0.0003627159015533432 1.567877575401129e-26)
(-0.0003218413582951952 0.0003804011085197648 5.793852418229491e-26)
(-0.0003369075929507918 0.0003982694708644386 -7.789860516699607e-26)
(-0.000373759502979843 0.000416770191396824 -2.58758404293575e-27)
(-0.0003927109417486899 0.0004382943911152886 2.708444991484677e-26)
(-0.0004068949822475584 0.0004603539272451065 3.329739483098017e-27)
(-0.0004351808205566833 0.0004838709647887141 9.422356857804533e-27)
(-0.0004377664013967519 0.0005041385403049414 1.487772301967525e-26)
(-0.0004854584559558551 0.0005521290163775781 -2.16262608347684e-26)
(-0.0004571386443522559 0.000540132490006643 6.555843761381752e-28)
(-0.0005326033871240145 0.0005989632488708227 6.136443484943956e-28)
(-2.64046665345505e-07 6.606066900924458e-06 -1.537046942950096e-25)
(-2.07721300406111e-06 2.420177819207393e-05 -2.06577740170596e-25)
(-6.2852545859012e-06 4.317034110202103e-05 -1.5378378105075e-25)
(-1.37477414759084e-05 5.942641360952992e-05 -5.561420000865515e-25)
(-2.321172488774681e-05 7.329676305261485e-05 -3.762690764477271e-25)
(-3.462649533872107e-05 8.3123778723339e-05 -3.919638169356646e-25)
(-4.658183953402312e-05 8.979140975251325e-05 2.875843933144307e-25)
(-5.894116730376898e-05 9.321841763723945e-05 -1.003575818552753e-25)
(-7.067562882454156e-05 9.493011500518586e-05 -8.615070901105625e-25)
(-8.154935495538888e-05 9.582649666277021e-05 -3.330223450493702e-25)
(-9.140142683170228e-05 9.719146819543456e-05 2.448510912471999e-25)
(-0.0001000218043755299 9.993724202497458e-05 -8.353999502433067e-26)
(-0.0001079575096459941 0.000104790636243082 2.894733583089516e-25)
(-0.0001148963574824203 0.0001122656783381179 1.03954986040746e-25)
(-0.0001219519906451995 0.0001224468365519342 -2.468929480656252e-25)
(-0.0001282911886551636 0.0001352299462787438 1.157807733692216e-25)
(-0.0001360290788131366 0.0001502992255817292 -3.751918354415382e-25)
(-0.0001428530796254861 0.000166955680817628 7.922713750103729e-26)
(-0.0001527010478384086 0.0001851740849654893 -2.903939860020272e-25)
(-0.0001604690250302913 0.000203229686756551 -2.212375041218698e-25)
(-0.0001730966998244453 0.0002223624474413786 -9.345132415668491e-26)
(-0.0001822858562667109 0.0002397333023664234 1.177971398813773e-25)
(-0.0001972937696218728 0.0002582544090818664 -8.157531295094576e-26)
(-0.0002081274325098988 0.0002738245973569026 -1.258793234648374e-26)
(-0.0002246600911976498 0.0002913006242129654 5.690793833594592e-26)
(-0.0002369721808708737 0.0003060324055551607 -1.542843069869574e-26)
(-0.0002515540413616683 0.0003223406835568003 6.489831199114523e-26)
(-0.0002657145169615365 0.0003393492911272347 7.629504957306268e-26)
(-0.0002779502955237193 0.0003549227913971399 5.716589352426643e-26)
(-0.0002910312257579494 0.0003706199001187629 1.386098596902118e-25)
(-0.0003053089213350171 0.0003890865511400647 -7.53209331685887e-26)
(-0.0003136225028212869 0.0004086715165860876 8.411073997600576e-26)
(-0.000325827157500513 0.0004337179719845905 -2.636144270362412e-26)
(-0.000334188908845414 0.0004540837107300605 -3.161096107299647e-26)
(-0.0003473308869045223 0.0004779599311803487 9.257509003341295e-27)
(-0.0003595190413886946 0.0005002726594633103 -3.57053601956599e-26)
(-0.0003744062653064699 0.0005263197671342042 -2.275732679303494e-27)
(-0.0003869947367387035 0.0005508631657284312 2.222777520955312e-26)
(-0.0003981962113584374 0.0005769534440083212 3.469857025352472e-27)
(-0.0004130224152019676 0.0006047110085628778 -5.499306299862602e-28)
(-2.777162313744146e-07 7.407997359068368e-06 -6.661711155443292e-25)
(-2.040004647415365e-06 2.773843429435361e-05 -3.376313733805562e-25)
(-6.504435425635654e-06 4.888656540028134e-05 1.19083945171286e-25)
(-1.382028518470847e-05 6.789319178835243e-05 1.076166850257195e-25)
(-2.354385243020392e-05 8.346089202879815e-05 7.408603157680754e-25)
(-3.470738333758099e-05 9.479360530589388e-05 -4.508165396408285e-25)
(-4.690089106095604e-05 0.0001016578792830376 -4.807005779434314e-26)
(-5.884143731238829e-05 0.0001050774871891046 3.417230252446579e-26)
(-7.064119451243217e-05 0.0001058899800931246 -1.874062187830856e-25)
(-8.096584405168858e-05 0.0001059056138312436 2.663628542008137e-25)
(-9.069107960352173e-05 0.000106062257911068 -4.996176614660876e-25)
(-9.868324913436618e-05 0.0001078668322949872 1.541116605921069e-25)
(-0.000106342181462708 0.0001118905781402739 -4.463064073725604e-26)
(-0.0001127220100038542 0.0001188864600351615 -1.618347549793647e-25)
(-0.0001194729998116378 0.0001289072572930652 7.555359332829332e-25)
(-0.0001256711689411391 0.0001418811014328894 -2.470158152818581e-25)
(-0.0001330098972501554 0.0001574814564690916 1.171425343413207e-25)
(-0.0001403403784141817 0.000175022118195621 -1.370145339370382e-26)
(-0.0001495383344339815 0.000194120406482382 4.727701243039315e-25)
(-0.0001585613584718579 0.0002135218062222003 1.247513391304326e-25)
(-0.0001703769286555015 0.0002335171513992736 -3.754570300318928e-26)
(-0.0001811234908291693 0.0002521962647326771 2.097973104787951e-25)
(-0.0001953679878291403 0.0002712114681983917 -1.189325151955321e-25)
(-0.0002074979418760503 0.0002879284580883478 5.139493956400845e-25)
(-0.0002229023022761149 0.0003054413541929874 -8.456912187646399e-26)
(-0.0002356761160751541 0.0003209623449840985 -6.858038891341075e-26)
(-0.000250267636363521 0.0003370310577568216 -3.395949546066336e-26)
(-0.0002635600162558566 0.0003525642965914309 1.456824584702763e-25)
(-0.0002763925519678028 0.0003680025005707864 -2.245679096248053e-26)
(-0.0002892017551062842 0.0003845201644458134 -7.400143189721178e-26)
(-0.00030167445948216 0.0004025517641943066 9.023400736230737e-26)
(-0.0003125883519732711 0.0004214395451080608 -3.342692081420711e-26)
(-0.0003245432320467134 0.0004429431884129355 -3.134278053792878e-26)
(-0.0003345163535341932 0.0004637698937554299 5.430389206202931e-26)
(-0.000345089877042208 0.0004865894425875872 -4.649722065377125e-26)
(-0.000355998481457534 0.0005101881249681747 2.910632274520518e-26)
(-0.0003672833829407554 0.0005356961141143133 2.122867832941716e-26)
(-0.000377941840328329 0.0005619187565514131 -9.006701821316922e-27)
(-0.0003892989928487133 0.0005879827600521422 -2.520215934231791e-27)
(-0.0004007041021322315 0.0006150556857043472 8.09245725974486e-28)
(-2.911340186951403e-07 8.234922790020925e-06 3.219518436801745e-25)
(-2.042762374182662e-06 3.130899190182734e-05 2.76390975310868e-25)
(-6.674954830430753e-06 5.483705581284036e-05 -2.005404926884478e-26)
(-1.399767132411406e-05 7.643894489891622e-05 -1.113322277178035e-25)
(-2.385152717012093e-05 9.387047376727676e-05 -2.039032255401734e-25)
(-3.498525321803454e-05 0.0001065657075967071 9.521639527510931e-25)
(-4.72988933756096e-05 0.0001137521619665703 4.889689176971251e-25)
(-5.912037389391727e-05 0.0001169759616040418 3.709700438022122e-25)
(-7.087948314810723e-05 0.0001169196380306227 9.968300411284422e-25)
(-8.093361909032704e-05 0.0001158833572831905 -1.656944494665284e-25)
(-9.044977400693263e-05 0.0001148103739825391 4.378426082407133e-25)
(-9.802037916737946e-05 0.0001155714225503206 -1.218703124643807e-26)
(-0.0001053607990695082 0.0001187681072974938 2.419449505592005e-25)
(-0.000111257032628699 0.0001253206481546053 4.07814176782051e-25)
(-0.0001177368636788097 0.0001352984084567938 -3.989409805176425e-25)
(-0.0001235367553822705 0.0001486075711949915 1.16568603298638e-25)
(-0.0001307663133782837 0.0001649217681008794 4.244491483392514e-25)
(-0.0001379699410248245 0.0001833646763259632 2.940682547448122e-26)
(-0.0001471487439524243 0.0002035292280209684 2.003804005185302e-25)
(-0.0001564982564328649 0.0002240946143992726 -3.139917011147012e-25)
(-0.0001681735214070132 0.0002450890845098208 2.622068669056854e-25)
(-0.0001794920194652974 0.0002648768414332604 -1.534670772644699e-25)
(-0.0001933614988836583 0.0002845016379897044 1.047344521870545e-25)
(-0.0002058959937660768 0.0003019539429819407 -4.838035833307107e-25)
(-0.0002207747435933647 0.0003194628673545931 -3.182338664886917e-26)
(-0.000233682972011363 0.0003348677159501721 5.713527847456825e-26)
(-0.0002480629268622532 0.0003505945045183751 1.893922996517672e-26)
(-0.0002607456480817123 0.0003653787406802122 -1.316075634782748e-25)
(-0.0002736968881529333 0.0003808946245698363 -4.284097152839478e-26)
(-0.0002856768318900154 0.0003967886070659032 1.265682608002074e-26)
(-0.0002976764625352752 0.0004143063331742014 -5.984909695837782e-26)
(-0.0003085643618004856 0.000432418517137007 -1.581056592638918e-26)
(-0.000320098250267634 0.0004531905787077123 -4.642715670193055e-26)
(-0.0003305291667709926 0.0004744790969190249 -9.805179639825905e-26)
(-0.0003411104662842019 0.0004977997121541637 9.697696521492888e-26)
(-0.0003523780177524899 0.0005219964515228229 1.604037405144904e-26)
(-0.0003638200515619875 0.0005479156967755872 -4.624794518486479e-26)
(-0.000375741605405714 0.0005737679813534488 1.599260208901678e-26)
(-0.0003877951175247228 0.0006005402790384662 3.201253205316407e-27)
(-0.0004003295557305329 0.0006266659068297444 -1.058268735449472e-27)
(-3.035513385328651e-07 9.099718476935631e-06 4.773053779991301e-25)
(-2.076917871566447e-06 3.491832186309167e-05 3.973002128266352e-25)
(-6.849046914049867e-06 6.095067564625059e-05 -8.188138242397201e-25)
(-1.426915182210903e-05 8.499036691015995e-05 5.505064595719482e-26)
(-2.419166453598037e-05 0.0001043580889766932 -1.197485353958221e-25)
(-3.539829625463465e-05 0.000118293670040879 3.205657304120308e-25)
(-4.780500237860628e-05 0.0001258342280848937 -5.157335299789402e-25)
(-5.966641460358452e-05 0.0001287266925118763 1.466925970066007e-25)
(-7.139561591574216e-05 0.0001277744551815878 -5.907378467622151e-25)
(-8.133393124778674e-05 0.0001255632107327624 4.197073116025908e-25)
(-9.064900703274893e-05 0.0001232164201711784 3.034335396650336e-26)
(-9.793431451903133e-05 0.0001228485580293053 -2.519382010281845e-25)
(-0.0001049358415693896 0.000125196689657035 -2.325993884035062e-25)
(-0.000110467232058022 0.0001313033374697565 -4.849555457260054e-25)
(-0.0001165995939789104 0.0001412627094509458 -8.608539832311885e-26)
(-0.0001220984345180747 0.0001549639212786617 -4.478291621216995e-27)
(-0.0001291124597986393 0.000172027534172562 -3.912818232107527e-25)
(-0.0001362034949413377 0.0001914639706987013 -7.153477116378544e-25)
(-0.000145322725395673 0.0002127741479787478 -7.437434027418949e-26)
(-0.0001548018885862413 0.0002345527124485041 1.659803466038083e-25)
(-0.0001663909621274021 0.0002566029953250453 -1.079259712234361e-25)
(-0.0001780343517617137 0.0002774438300240589 -1.745690281141218e-25)
(-0.0001916101206134075 0.0002976133842702458 6.945890301768866e-26)
(-0.0002044318029576021 0.000315656311944876 4.925540817691772e-25)
(-0.0002188522834733664 0.0003330571410764371 6.232753050327777e-26)
(-0.000231757142432707 0.0003484109468642968 9.97788300387846e-26)
(-0.0002456905069283432 0.0003637669720459332 1.56068643529294e-25)
(-0.0002579154077874428 0.0003780464248345437 -1.932801255169628e-25)
(-0.0002705385451348878 0.0003931523478124598 5.527780464043122e-26)
(-0.0002818838622910553 0.0004084576259323077 -6.745614224638022e-26)
(-0.0002933604482545716 0.0004255034332425779 -7.621763390543009e-27)
(-0.0003038118896672721 0.0004433845241385468 1.877197131811634e-26)
(-0.0003146556312211627 0.0004638392815730818 1.278982566093402e-25)
(-0.0003249929940426265 0.0004853474461945686 3.220045581132298e-26)
(-0.0003354663663373641 0.0005089072009070987 -4.188034860781674e-26)
(-0.0003467629108088267 0.0005333810275913962 4.030041962560055e-27)
(-0.0003582281891543318 0.0005595883166278422 9.41498475007747e-27)
(-0.0003704868856912073 0.0005857051869660936 1.456827974727675e-26)
(-0.0003832060638798783 0.0006132442412505509 5.975464727226267e-27)
(-0.000396309799752198 0.0006393954755536732 1.866972708675635e-27)
(-3.138551021786333e-07 9.998648042898852e-06 -1.028655474260651e-24)
(-2.127475809902095e-06 3.859733483410563e-05 -1.202955247269683e-24)
(-7.039163913593005e-06 6.721080288232958e-05 8.828111085186072e-25)
(-1.46159443242218e-05 9.357768175630952e-05 -4.207906751583049e-25)
(-2.456607911608411e-05 0.0001149783444652011 1.987610415040917e-25)
(-3.589409333873648e-05 0.0001301202480379016 -4.131413623924761e-25)
(-4.838741013149463e-05 0.0001380616909456673 3.177866330429143e-25)
(-6.039533847415373e-05 0.0001405472372113541 -1.40497969827036e-25)
(-7.216756183503289e-05 0.0001386428779094641 1.533427386893795e-25)
(-8.212880445635065e-05 0.000135133486080736 -5.293685093953669e-25)
(-9.129326573806374e-05 0.0001314434050040447 3.516564973615269e-25)
(-9.840392359358949e-05 0.0001298557679153384 3.268207987705647e-25)
(-0.0001050490030290547 0.0001313256538910698 -6.436581673048036e-25)
(-0.0001102585910034675 0.0001369713281326869 5.217555124362167e-25)
(-0.0001160130050413855 0.0001469469334542726 -2.123865899789744e-25)
(-0.0001212274410782206 0.000161115784115184 8.485646374783551e-26)
(-0.00012794459525302 0.0001790168591284633 -1.203125124451835e-26)
(-0.0001348900282823589 0.0001995498929132245 5.028039601835465e-25)
(-0.0001439131902314328 0.0002221096237939134 -5.679611257155236e-25)
(-0.0001534634039900731 0.0002451742002015351 2.986857692642065e-25)