/*--------------------------------*- C++ -*----------------------------------*\
| =========                 |                                                 |
| \\      /  F ield         | OpenFOAM: The Open Source CFD Toolbox           |
|  \\    /   O peration     | Version:  2206                                  |
|   \\  /    A nd           | Website:  www.openfoam.com                      |
|    \\/     M anipulation  |                                                 |
\*---------------------------------------------------------------------------*/
FoamFile
{
    version     2.0;
    format      ascii;
    arch        "LSB;label=32;scalar=64";
    class       surfaceScalarField;
    location    "1";
    object      meshPhiCN_0;
}
// * * * * * * * * * * * * * * * * * * * * * * * * * * * * * * * * * * * * * //

dimensions      [0 3 -1 0 0 0 0];

oriented        oriented;

internalField   nonuniform List<scalar> 
35915
(
-4.560636041322414e-19
1.547845092273346e-13
1.610937701270075e-18
4.623191459083991e-13
6.516217265532361e-18
7.654355215496323e-13
1.262205368163892e-17
1.063544806721555e-12
4.244368201889922e-18
1.356086837537045e-12
-6.696307488941974e-18
1.642627339088156e-12
-3.611445082038399e-18
1.922840275206045e-12
-5.13974852832565e-20
2.196421442043857e-12
3.575640495529651e-18
2.463298632395121e-12
-3.439079984948718e-18
2.723227331689671e-12
9.970773565897276e-18
2.976328000173614e-12
2.188878883112223e-18
3.222734361554668e-12
6.293882151443009e-18
3.462635046700528e-12
8.57054265472767e-18
3.696430768428822e-12
-2.582348219779513e-18
3.924568385898918e-12
4.966315665068395e-18
4.147609535979266e-12
4.906473431061255e-19
4.366253246584628e-12
-5.652613191674071e-18
4.581348883443046e-12
1.008616940213701e-18
4.793808380947247e-12
1.093043685311289e-18
5.004628924177943e-12
-4.500337020191111e-18
5.214943617724712e-12
-1.13043994374676e-18
5.42594729981716e-12
2.455754990480407e-18
5.638959217889314e-12
9.981046242512221e-19
5.855341587097503e-12
-1.284033262499998e-18
6.076446009618473e-12
1.308488324436425e-18
6.303738436535965e-12
-4.001298342302277e-18
6.538638685368276e-12
-2.437213087975981e-18
6.782600824983119e-12
-2.241803003564613e-19
7.037019098849904e-12
-5.561312679455307e-19
7.303250050324029e-12
1.137783403917321e-18
7.582544551283434e-12
1.138425631247621e-18
7.876102386767015e-12
3.151466927548817e-18
8.184875581782387e-12
1.455144775897357e-18
8.509674680617232e-12
2.504402145914402e-18
8.851034233987878e-12
1.073490574587921e-19
9.209217701981914e-12
-1.780378580788959e-19
9.584232264475998e-12
2.058368194582165e-18
9.975525561279896e-12
1.314653223422759e-19
1.038231813624959e-11
1.075934843685886e-11
-8.416096053348555e-20
5.985883352850102e-18
3.074638039876836e-13
-4.816908141224465e-18
9.181548506492088e-13
-4.830463013305446e-18
1.51983975154185e-12
3.000872113489795e-19
2.11130003470833e-12
5.378152717317868e-18
2.691429215150679e-12
2.573358349403419e-18
3.259441565927841e-12
-2.951972501591846e-18
3.814603187072862e-12
-2.852354534241777e-19
4.356402860710608e-12
-8.762606371938036e-18
4.884486813236416e-12
2.363457432573476e-18
5.398663197399305e-12
6.205962323139157e-18
5.899019327221804e-12
-2.939002755894064e-18
6.385738237221861e-12
-1.232747204112718e-17
6.859351462354215e-12
-4.024857746169967e-18
7.320565682535061e-12
6.851772620173885e-18
7.770269080030296e-12
-6.31983342376886e-18
8.209618651162526e-12
-4.419390798857871e-18
8.640077124475607e-12
1.557737560200985e-19
9.063222052833319e-12
-1.735139005708823e-18
9.480876358428167e-12
-4.132350379485924e-18
9.895097592010558e-12
-6.579506370567748e-19
1.030813117425674e-11
-2.866082168882451e-18
1.072236992426683e-11
-8.334737716058886e-19
1.114037906037503e-11
-2.39048659176091e-18
1.156490281861498e-11
-2.666600191990986e-18
1.199867765032001e-11
-1.113755717769438e-18
1.244453889809333e-11
-2.907411751180908e-18
1.290546585376843e-11
-4.751984428729846e-19
1.338425704490528e-11
4.74461545199281e-19
1.388378113347814e-11
-7.910577759014743e-19
1.440674176526726e-11
2.106352570574342e-18
1.495568363334168e-11
5.779802014202817e-19
1.553291194104296e-11
-9.953042259069604e-19
1.614051267661482e-11
1.20957141155442e-18
1.678006123102759e-11
7.507760255802038e-19
1.745281682122323e-11
9.187810943640884e-19
1.815936411770564e-11
1.353305949309856e-19
1.889966247643557e-11
1.531133417871165e-18
1.96729466812444e-11
2.554671623490107e-19
2.047751444725104e-11
2.122401403011245e-11
4.584479462456387e-19
3.550939860033073e-18
4.57633423298456e-13
1.684043067113874e-18
1.366450383497726e-12
8.030312263800894e-18
2.261396859699849e-12
-5.752712699703316e-18
3.140683046917139e-12
-6.552291846789935e-19
4.002733100978329e-12
-4.845668048231542e-18
4.846330042925161e-12
-8.368859829103281e-18
5.670394899312681e-12
-6.915731657171659e-18
6.474059679788376e-12
8.855069097514725e-18
7.256905091175349e-12
-2.946271524195165e-18
8.018653250298777e-12
-2.716064465676529e-18
8.759332408968466e-12
-7.405821573174163e-18
9.479303688090185e-12
8.268229411077952e-18
1.017932708302652e-11
-5.97117409088333e-18
1.086040021942403e-11
6.132382519502225e-19
1.152391055647433e-11
-1.344322476987154e-18
1.217165725642053e-11
-1.227659319611548e-17
1.280565419908967e-11
7.872685799164671e-18
1.342837606257472e-11
-3.607901884394951e-18
1.404257505049042e-11
2.235725292173735e-18
1.465131109225903e-11
-1.796427772381083e-18
1.525790206486746e-11
1.759765309282036e-18
1.586601354723952e-11
-3.365691262099406e-18
1.647945680461373e-11
2.653849318607072e-18
1.710227869095254e-11
-4.782545471117946e-18
1.773868640810866e-11
1.00392228857646e-19
1.839296140711616e-11
5.680126159425593e-18
1.906945867813257e-11
-3.854029779383185e-18
1.977251234839166e-11
1.949674118856135e-18
2.050643600753856e-11
-1.952466388877924e-18
2.127527623316592e-11
-1.407338699680054e-18
2.20829607708891e-11
3.183975865064044e-18
2.293307863210997e-11
-6.188464659550067e-19
2.382874021237404e-11
9.650908600233322e-19
2.477260040983772e-11
-1.559671903676993e-18
2.57666028440345e-11
-1.745677686474865e-19
2.681187566371407e-11
-3.755412337955479e-19
2.7908542104114e-11
2.068618259768439e-18
2.905576561449177e-11
5.101421594492039e-19
3.025116753745225e-11
3.136214210661378e-11
2.353976831960604e-19
6.014459964460984e-19
6.049466460034541e-13
5.181921771734794e-18
1.806007062404865e-12
-4.438311507226664e-18
2.988230512896607e-12
-6.807338642218333e-19
4.14914157446368e-12
-6.595369849251433e-18
5.286719734307678e-12
-7.169341004397922e-18
6.399275121529082e-12
-5.082719364813996e-18
7.485365159329382e-12
4.113392903872764e-18
8.543910692884453e-12
3.508619009644676e-18
9.574226975797839e-12
8.222189052334231e-18
1.057593872233541e-11
1.343158286983763e-17
1.154915712226833e-11
-4.611137626994282e-18
1.249430314732888e-11
3.768058170751811e-18
1.341231247958945e-11
-2.467760511052613e-18
1.430459297916829e-11
1.953925690547517e-18
1.517303405508995e-11
6.92055212310508e-20
1.601993350020478e-11
-8.033679321436104e-18
1.684804749883245e-11
2.105850533218416e-18
1.766062811734564e-11
-1.859105532878879e-18
1.846134244180805e-11
-3.533595387041637e-18
1.92542949311455e-11
7.788183983826779e-19
2.004390998857078e-11
7.605299418759248e-18
2.083503992855977e-11
3.176835070529055e-18
2.163280042391093e-11
5.259758117433608e-18
2.244267354382109e-11
4.983645996702776e-18
2.327016594775704e-11
2.102760033476e-18
2.412109871621425e-11
-4.166667132173287e-19
2.500126996350751e-11
3.435466926470137e-18
2.59165160109515e-11
-2.453673416338983e-18
2.687267794139417e-11
1.395866633720385e-18
2.78752680620503e-11
-1.040060039998119e-18
2.892961998287841e-11
3.576461198723508e-19
3.004067475020112e-11
-1.138896335256612e-18
3.121285645482663e-11
6.037573019237328e-19
3.244987276867019e-11
-6.353179548820619e-19
3.375462834574816e-11
-5.330814365418399e-19
3.512901202306846e-11
5.262328618711781e-19
3.657367282089912e-11
-1.023666056921364e-18
3.808772587163164e-11
2.223935669751757e-19
3.966876970832912e-11
4.11414608646614e-11
-2.000387620385717e-19
6.652617351258116e-18
7.491011362159544e-13
-2.708908930462541e-18
2.236033876507439e-12
4.520453525226348e-18
3.698878663415434e-12
-4.281602974790094e-18
5.134674592413474e-12
7.358093313563014e-18
6.54078240143548e-12
6.978805686751116e-18
7.915030938618647e-12
-6.293395173221242e-18
9.255669739999435e-12
-7.927306841046733e-19
1.056131632686004e-11
-3.021889483871843e-18
1.18310548643982e-11
3.71473703995155e-18
1.306443421774417e-11
-6.425807951061041e-18
1.426148034383303e-11
-8.4046250075603e-18
1.54228197004724e-11
3.842645577940761e-18
1.654959369695066e-11
-1.528149663816734e-18
1.764354856819789e-11
3.447633808751367e-18
1.870695495521336e-11
-3.287954664738349e-18
1.974273110398183e-11
2.299145227307147e-18
2.075434363617096e-11
-1.161985592889687e-18
2.174585769959114e-11
-1.166396668841897e-18
2.272181122406685e-11
-1.485322743837149e-18
2.368736622341131e-11
-1.634063748477002e-18
2.464812176055957e-11
4.635801367288047e-18
2.561010627231894e-11
-2.714147806075202e-18
2.657978999224768e-11
3.844848937803674e-18
2.756387709905912e-11
2.763800128041779e-18
2.856949991149211e-11
2.285072219661109e-18
2.960383004750935e-11
-8.016806543980078e-19
3.06743271944201e-11
-1.780243816767907e-18
3.178832619826982e-11
2.35553479888887e-18
3.295318584136851e-11
-9.875763529601739e-19
3.417603457990779e-11
2.209284365775816e-18
3.54636979799027e-11
-4.549884936278591e-19
3.682260754564041e-11
2.060280419912103e-18
3.825860303799168e-11
-5.283273268078624e-19
3.977674569898462e-11
-7.413158337162654e-19
4.1381108295379e-11
9.056239557480992e-19
4.307459906235872e-11
2.50594156519149e-18
4.48587000971585e-11
-1.266031420984325e-18
4.673312606377775e-11
-1.796448323824339e-19
4.869551299032237e-11
5.052867205819036e-11
1.203435241819469e-19
-5.402056766545374e-18
8.89793975747217e-13
2.176795561083519e-18
2.655644717627729e-12
-1.953396126949652e-18
4.392053560912107e-12
2.417205419789055e-18
6.09538415308787e-12
-5.199156356569004e-18
7.762437517045395e-12
-4.765339765585168e-18
9.39063447225723e-12
2.537961630602602e-18
1.097774821577475e-11
-4.551736834403859e-18
1.252212218118945e-11
-2.571087591069658e-18
1.40225892083735e-11
6.621578813142532e-19
1.547858195713794e-11
4.243240505859605e-18
1.689012224855968e-11
-5.050232833601913e-18
1.825793982199495e-11
6.843611180975741e-19
1.95833621694093e-11
-1.245685815743594e-17
2.086842698685419e-11
1.408012381942167e-20
2.211593920664639e-11
2.437051169125878e-19
2.332934474902476e-11
-6.635991834254174e-18
2.451281801142508e-11
8.214048974316408e-19
2.567121455196282e-11
6.704007036519919e-19
2.681004317862733e-11
2.494356825717022e-18
2.793544510223279e-11
-6.812724369409552e-19
2.905419588013457e-11
-4.451575514001414e-18
3.017357270682987e-11
-3.957882681061016e-18
3.130128228696788e-11
-2.068068401723163e-19
3.244557519997186e-11
-4.746796831022226e-18
3.3614938371167e-11
-2.597395249267404e-18
3.481814411794738e-11
-5.32746602255677e-18
3.606415561604517e-11
2.432312619267192e-18
3.736198017098762e-11
5.018093384499224e-18
3.872056069502108e-11
1.772667206688874e-18
4.014869206040199e-11
1.137867639094696e-18
4.165489861450078e-11
-9.992475718835696e-19
4.324722785223162e-11
7.612773882585819e-20
4.493312171999337e-11
-2.277181950943482e-19
4.67191754209587e-11
-1.859072532436555e-18
4.861095490993466e-11
3.843282767637059e-19
5.061274808638311e-11
-4.77218097668972e-19
5.272724766044276e-11
1.415327491803342e-18
5.49551662298813e-11
1.002965259608098e-19
5.729490809999414e-11
5.948791795659834e-11
7.985842389732066e-19
1.483795723096641e-18
1.026839018705538e-12
-1.145002415327737e-17
3.064181259933603e-12
-1.841571218104141e-17
5.066609700556202e-12
-1.541462165913683e-18
7.029697120222698e-12
5.469308574149576e-18
8.94971327392037e-12
-8.065279861303835e-18
1.082351381992226e-11
3.723826160755157e-18
1.264855409672191e-11
8.900480771928003e-18
1.442274241833003e-11
2.321970615343663e-19
1.614465620887274e-11
2.152899435366012e-18
1.78136459569949e-11
6.095175406743143e-18
1.942966246834882e-11
1.439695426968749e-17
2.099346459067858e-11
-6.66253575310684e-18
2.250664519124414e-11
2.547843720539604e-18
2.397158911047145e-11
-4.222601112864977e-19
2.539148482933726e-11
-2.10241446277141e-18
2.677034911857096e-11
-7.892129126390786e-19
2.811306751022351e-11
-6.177695126491566e-18
2.942534775844555e-11
3.670382889392239e-18
3.071358076325222e-11
-6.809368334610809e-18
3.198498372966185e-11
-2.640788409427064e-18
3.324746476320425e-11
-1.236011993696681e-18
3.450952005655869e-11
1.96027899683828e-18
3.57803176880625e-11
1.685811178155012e-18
3.706945268686433e-11
1.541279586923366e-18
3.838689076987449e-11
1.164643782592081e-18
3.974305468416675e-11
-1.960156030654206e-19
4.114842923870673e-11
1.843467205363509e-18
4.261371682282972e-11
5.208423630139917e-18
4.414958350108428e-11
-5.259129307841873e-19
4.576662024549585e-11
-2.413210113994218e-18
4.747507485019585e-11
5.575711320583023e-19
4.928478167965453e-11
-2.656687554816923e-19
5.120501670960855e-11
-5.213497053790084e-19
5.324422985798546e-11
-2.534485302565812e-18
5.540976521048392e-11
1.162950756371104e-18
5.770764703478771e-11
-1.605115226665278e-19
6.014225402896001e-11
-1.523852627081715e-19
6.271584978477312e-11
2.659024970508146e-19
6.542820594971195e-11
6.798024518720078e-11
3.947810905820633e-19
1.188004049340371e-17
1.160052439252522e-12
9.552004876774889e-18
3.461129670806049e-12
-3.719674193718992e-18
5.721586413987299e-12
6.306887020890517e-18
7.936303225316448e-12
5.930483991138251e-18
1.010087937674902e-11
2.022643712438095e-18
1.221167205099591e-11
-1.712907823186045e-18
1.426556588416779e-11
-5.035828690804284e-18
1.626014823705579e-11
-4.839955105401834e-18
1.819378763578278e-11
-5.865647122487774e-18
2.006557142975497e-11
-3.929308745787066e-18
2.187545101263572e-11
5.837066567740426e-18
2.362423439481993e-11
-9.333773243395804e-19
2.531367956656169e-11
6.37756622862921e-18
2.694648059715041e-11
-5.389067499861618e-18
2.85262945968514e-11
5.189266353768886e-18
3.005768274308162e-11
9.573760884809429e-18
3.154625653145007e-11
1.578021249637491e-18
3.299843532415612e-11
-2.48325660982217e-18
3.4421708062155e-11
-2.547281219436742e-18
3.582425226258705e-11
3.335950397830238e-18
3.721518019655535e-11
5.86181417845384e-18
3.860430119603315e-11
4.245660171083146e-18
4.000202944385527e-11
5.332695564710855e-19
4.14194825433828e-11
3.658577528040311e-18
4.286815955662251e-11
-5.53352199576931e-19
4.436004609949172e-11
3.43574626647039e-18
4.590731584321473e-11
-3.705069984994978e-18
4.752233742019728e-11
5.039563849761854e-19
4.921763202454863e-11
2.38331567958419e-19
5.100556195775539e-11
5.2760629011189e-19
5.289825041001124e-11
-9.859430543123535e-19
5.490760012464766e-11
1.499954974882636e-19
5.704487036477952e-11
-4.534241276141253e-19
5.93205093780086e-11
2.644372018992643e-20
6.174408387508776e-11
-2.710580874048342e-19
6.43238162935628e-11
1.400728778934648e-18
6.706622773433468e-11
1.030139699290319e-18
6.997576870590668e-11
-1.055348611528395e-19
7.305430102149186e-11
7.596334789932894e-11
2.360281565728705e-19
-1.129243210595987e-17
1.289256271498356e-12
-4.465816866922227e-18
3.84599142175419e-12
-3.32720681346336e-18
6.356249927800276e-12
3.739098936566911e-18
8.814170754418497e-12
-3.022995589834575e-18
1.121459635510657e-11
1.293267728021231e-18
1.355330329869798e-11
3.294373388822054e-19
1.582671644961837e-11
-4.487513596511704e-18
1.803203238727437e-11
4.96209379099313e-18
2.016723065606121e-11
-3.580497005030032e-18
2.223124650130147e-11
-6.49612098002963e-18
2.422390187341646e-11
5.419958184178469e-18
2.614608977910361e-11
2.170807519254525e-18
2.799974690734534e-11
1.369213319741985e-19
2.978784165398402e-11
2.514820738021135e-18
3.151444208667862e-11
-5.353724902178839e-18
3.318472493890773e-11
6.182089781998961e-19
3.480497214870811e-11
1.431695563247591e-18
3.638244920277392e-11
1.531058543805188e-18
3.792556928916332e-11
1.169561676888699e-18
3.944359361079811e-11
1.913301062460862e-18
4.094684369483327e-11
-2.767373627639287e-20
4.244633319332123e-11
-1.442521317906448e-18
4.395396272794677e-11
4.113285478876598e-18
4.548222541532566e-11
-4.681861500196158e-18
4.70441692924985e-11
1.939530252436642e-18
4.865338968006322e-11
3.442018098415983e-18
5.032378535808473e-11
-3.323278728863168e-18
5.206953163613564e-11
5.955281292939431e-18
5.390484299080199e-11
1.855603481793688e-18
5.584404137599191e-11
-5.716661584337713e-19
5.790133222893311e-11
-1.196468493550726e-18
6.009059231313129e-11
-6.279458136306781e-19
6.242529331428205e-11
-1.895942358649634e-19
6.491836720806543e-11
-2.360389231131436e-18
6.758177265763713e-11
5.757108032923473e-20
7.042637245010993e-11
1.174675262277132e-18
7.34614504087934e-11
-9.110477310970167e-19
7.669433563293242e-11
2.907506873650808e-19
8.012970691399172e-11
8.339119415378481e-11
-1.468527934817304e-19
-2.187526309268659e-18
1.41435385673458e-12
9.59335303693985e-19
4.218526368431288e-12
-7.5276746163454e-18
6.970165924708625e-12
6.868289591574948e-19
9.66260924896766e-12
1.727709046423887e-18
1.228998096101858e-11
-1.728082388522747e-18
1.484741495403669e-11
-2.927420497244887e-18
1.733074491646253e-11
-9.230936745073093e-18
1.973672028961436e-11
4.763400219033201e-19
2.206303981387568e-11
-3.306261400677421e-18
2.430833192215273e-11
4.539341751704598e-18
2.647237160788895e-11
-2.579498844831953e-18
2.855605353052488e-11
8.09531574756284e-18
3.056140650508528e-11
4.082307602534314e-18
3.249176051598485e-11
2.591415092751869e-19
3.4351562020803e-11
2.586765596172261e-18
3.614655847022421e-11
-1.878819623077918e-18
3.788373562945391e-11
3.616361887883542e-18
3.957120742907315e-11
8.569818011540683e-19
4.121833621048075e-11
3.047254968502171e-18
4.283550762319565e-11
7.173357607507709e-18
4.443414341079043e-11
1.669830789012499e-18
4.602661023289911e-11
1.022589721803522e-18
4.762621023963812e-11
-3.606874555795214e-18
4.924683828532947e-11
-2.823620379481664e-18
5.090320170922476e-11
3.89085522619408e-18
5.261042048043846e-11
-1.904448863813251e-18
5.43841142772466e-11
9.263809192622333e-21
5.624020007266415e-11
-1.951566552301869e-19
5.81947481476643e-11
6.445281075758029e-19
6.026405993682374e-11
4.077521304375831e-19
6.246434302606673e-11
-1.421570687235631e-18
6.48116908779239e-11
-1.827880565363875e-18
6.732200518902833e-11
3.837959245939899e-18
7.001074292407528e-11
-1.702628774906589e-18
7.289268203465886e-11
1.281028717559874e-18
7.59817775004254e-11
8.055919546790675e-19
7.929063195585931e-11
9.977291987639378e-19
8.283012723216204e-11
4.215389412852332e-19
8.660881089410401e-11
9.021441484308079e-11
-4.783335787360996e-19
-3.838839844268542e-18
1.535336249129889e-12
1.386625350892564e-18
4.578551883773853e-12
2.978841862143005e-18
7.563054948698414e-12
1.654068998146091e-17
1.048130201576457e-11
9.010959761816353e-19
1.332659598829966e-11
-4.493361771947989e-18
1.609335593742211e-11
-1.741202698891778e-18
1.87768876331229e-11
9.569753548320231e-18
2.137337785223486e-11
3.258347067819456e-18
2.388012193744363e-11
4.55798515801176e-18
2.629557967670285e-11
4.96247782354008e-18
2.861930705047767e-11
-6.613210901192545e-18
3.085220377725889e-11
-2.24949137410436e-18
3.299647937714456e-11
-9.542777297823613e-18
3.50556762786587e-11
-8.065391540947971e-19
3.70346928308178e-11
-9.36730129545069e-19
3.893987203671772e-11
-5.490897026018585e-18
4.077879877567517e-11
5.038727007282677e-18
4.256052115290518e-11
1.593721501280972e-19
4.429534892649565e-11
-3.413604139094781e-18
4.59947307550525e-11
-7.063823011355234e-18
4.767132365260647e-11
-7.49987439030022e-18
4.933880651761174e-11
-1.752413061495045e-18
5.101181169913498e-11
-1.743415887869721e-18
5.270578930843535e-11
4.05985101018755e-19
5.44368982006323e-11
2.118730177990393e-18
5.622190094084266e-11
-1.533237518309223e-18
5.807808387992442e-11
1.727006320760368e-18
6.002310003381253e-11
-4.985076868796423e-18
6.207487923068692e-11
-1.142870810010159e-18
6.425154810971107e-11
-1.000908492671507e-19
6.657141601183365e-11
-6.936174899068935e-19
6.905288378973478e-11
-6.98710917904348e-19
7.171429099098592e-11
-1.018084636391348e-18
7.457381185954437e-11
-3.344330097013259e-19
7.764938957117947e-11
3.685116629417873e-20
8.095845704527146e-11
-2.519610566551896e-18
8.451750649538167e-11
2.599666295002177e-19
8.834176954107509e-11
2.624880690841035e-19
9.244457186464423e-11
9.638060666589508e-11
-2.540186366697643e-19
-2.144990331598282e-18
1.652134449577786e-12
1.139682798340939e-18
4.926076401376287e-12
-8.744001961774834e-18
8.134948773689062e-12
4.261754276024146e-18
1.127023614292995e-11
7.551099407713185e-18
1.432441516269915e-11
-9.657384537372942e-18
1.72911109330624e-11
3.343405474128176e-18
2.016500922683701e-11
2.413292084694613e-18
2.294181905546547e-11
-4.277531348291153e-18
2.561834677048427e-11
8.124748412042008e-19
2.819268071717543e-11
-1.849962021322142e-18
3.066429694395327e-11
-1.849810720535657e-18
3.303406308027795e-11
4.929975006736116e-18
3.530422712239123e-11
-4.458390179172763e-18
3.747866118159604e-11
-9.136782295570743e-19
3.956268641535587e-11
-2.884971252264848e-18
4.156314697519966e-11
-7.107451019714111e-18
4.348840961900535e-11
4.417281748927271e-20
4.534833429361797e-11
3.813331508435812e-19
4.715418797609144e-11
-1.982036923734468e-18
4.891853668628298e-11
1.513780815877392e-18
5.065526570957579e-11
2.521806575391886e-18
5.237939123975335e-11
1.782317404222338e-18
5.410687007080411e-11
-8.013289187208887e-19
5.585465076921665e-11
8.659883226501631e-18
5.764043246057199e-11
-2.738647889108952e-18
5.948246690547668e-11
6.690329345618838e-19
6.139966468859538e-11
-1.361174443854274e-18
6.341132822126713e-11
7.769751719651979e-19
6.553713877616403e-11
3.09347431904721e-18
6.779708872751936e-11
-1.600198767739848e-18
7.0211477163619e-11
-4.568880189397776e-19
7.280086464742072e-11
-1.031615036709735e-18
7.558611021664376e-11
1.647614151153443e-18
7.858828478753692e-11
1.33336756828065e-18
8.18285937506941e-11
-2.388896601394777e-19
8.532825666208351e-11
-1.153860631092834e-18
8.910831245663908e-11
7.126830417755633e-19
9.318904937806339e-11
-6.864858051072127e-19
9.758955887008957e-11
1.018353776481357e-10
1.658043965305571e-19
-3.156607491611633e-18
1.76485747457343e-12
2.757416355574324e-18
5.261257680590063e-12
-3.631718389611442e-18
8.68610722245575e-12
1.402281888609039e-18
1.202980539479398e-11
-5.977654169784059e-18
1.528388113883688e-11
3.081354716029769e-18
1.844126188371455e-11
8.630767078819088e-18
2.149585557611719e-11
-9.547209319601803e-18
2.444277362960611e-11
-2.744285181631911e-19
2.727834368152655e-11
2.875614896356802e-18
3.000035016023822e-11
6.246456785035363e-18
3.260804569416218e-11
-4.614652173187264e-18
3.510224874697059e-11
-6.256158144976009e-18
3.74853122881389e-11
1.958882576706283e-19
3.97612868035187e-11
5.565244514681563e-19
4.193598780985269e-11
-1.00226290993849e-17
4.401680464931751e-11
-9.554092930342136e-18
4.601281774148917e-11
-4.574096757436262e-18
4.793473373210836e-11
-1.844322666803265e-18
4.979480759814896e-11
2.220552453498108e-18
5.160680115052991e-11
4.76213446629998e-18
5.338577078106897e-11
2.962181575127715e-18
5.514799491102583e-11
4.643821017976483e-19
5.691092358549109e-11
6.579367492643032e-20
5.869285186202299e-11
5.080672437582047e-18
6.05129229039704e-11
-3.43200485116472e-19
6.239097037835389e-11
6.561457824139401e-18
6.434736156120934e-11
4.252681313464823e-20
6.640289078610475e-11
3.163756467412839e-18
6.857887568079677e-11
3.336540840232769e-19
7.089693671272518e-11
1.557299196135965e-18
7.337922448208712e-11
-2.616486544019967e-19
7.604834984593171e-11
1.789956533401842e-19
7.892751879248328e-11
1.345093192880346e-18
8.20406309546634e-11
2.490979957202992e-19
8.541230982429812e-11
-6.979817678466265e-19
8.90678536779131e-11
7.933233423565636e-19
9.303317445176182e-11
6.760742404991825e-19
9.733440868332889e-11
-5.478513767481298e-19
1.019974420348763e-10
1.065235911315838e-10
-2.959220074718385e-19
-4.144301370318907e-18
1.873621610868068e-12
5.771900434328516e-18
5.584491207351854e-12
6.672678197707383e-18
9.217076500773584e-12
-3.777610397440695e-18
1.276074259587741e-11
3.309586601642427e-18
1.620604253760889e-11
-2.960976419792835e-18
1.954497636929769e-11
7.529323361649382e-18
2.277073832475585e-11
4.910193265432645e-18
2.587774085467974e-11
6.732310451198104e-19
2.886185550979381e-11
2.332882707840647e-19
3.172046537467213e-11
1.562451358602822e-18
3.445254883315644e-11
1.000674987963961e-17
3.705886934682288e-11
1.694823832707194e-18
3.954184330660843e-11
2.333371055175898e-18
4.190580851051785e-11
8.537535736334943e-20
4.415688731224083e-11
5.841732440752059e-18
4.630313375820447e-11
-7.014490503563653e-18
4.835437321423598e-11
-3.804651796256614e-18
5.032214805608506e-11
-4.412463622648157e-18
5.221975788195189e-11
-7.840432198493585e-19
5.406210462842726e-11
1.969355232693064e-19
5.586544823375213e-11
-3.346008876642228e-18
5.764748968919365e-11
3.379950704310469e-18
5.94269372091996e-11
-2.299394293763794e-18
6.122352034303034e-11
-2.98736718700277e-18
6.305783506183455e-11
1.247234537977297e-18
6.495097846779905e-11
-6.729883702707324e-19
6.692475500270192e-11
-2.307090359695577e-18
6.900128761531534e-11
-2.441535461032082e-18
7.120324056441735e-11
4.363557568201808e-20
7.355364648736281e-11
1.857530594452846e-18
7.607613596750814e-11
1.236644400876028e-18
7.879508236387548e-11
-1.776308883475302e-18
8.17358118721251e-11
6.864225232239389e-19
8.492481141690309e-11
-3.659270579263566e-18
8.838996167847457e-11
-9.927231658892415e-19
9.216075764152271e-11
-2.554650068712472e-20
9.626828782262601e-11
-6.737670024609181e-19
1.007451591493775e-10
5.489733276145828e-19
1.056250826566054e-10
1.103914043404572e-10
-2.887410731901866e-19
7.174958610819266e-18
1.978567378134656e-12
-1.466391699969592e-17
5.896188027402398e-12
-6.707352166337142e-18
9.728678934579095e-12
-6.300138601275608e-19
1.346423179656225e-11
2.45730183125294e-18
1.709231624264174e-11
-1.523749938903304e-19
2.060406091260797e-11
3.674095472217828e-18
2.399176239859637e-11
4.106256992871397e-18
2.724916026819518e-11
5.511110451139801e-19
3.037157586256937e-11
-5.774052684126823e-19
3.335592856105571e-11
2.229070364019217e-18
3.620097643448605e-11
-1.383911388619399e-18
3.890731062951798e-11
7.279790407587407e-18
4.147745319180538e-11
5.133227842329155e-18
4.391599155059196e-11
-4.728219200418065e-18
4.622946481681142e-11
7.206255694120449e-18
4.84264762717149e-11
2.811902111287853e-18
5.051759447982679e-11
-1.092512646085118e-18
5.25153631912658e-11
2.023279255115175e-19
5.443408375298948e-11
-1.507648599941197e-18
5.628981124782069e-11
-3.16606806510709e-18
5.810015001179134e-11
1.392698362182375e-18
5.988403520732102e-11
3.079600936303016e-18
6.166160665946243e-11
8.76341317200007e-19
6.345398394279392e-11
-1.346334856875919e-19
6.528295647693742e-11
2.752681551701034e-18
6.717099311060136e-11
-1.809751431213372e-18
6.914103153144448e-11
-1.601570486564653e-18
7.121621494537631e-11
-5.906946407226781e-18
7.342026370681135e-11
8.580051167701484e-19
7.577721513940847e-11
-4.338605481828061e-18
7.831179648377192e-11
-1.714121123968061e-18
8.104954892509285e-11
-1.938776949838272e-18
8.401747580102485e-11
4.834703450285829e-19
8.724415941006792e-11
1.013608166105958e-18
9.076036967826402e-11
-1.506304284734832e-18
9.459966823183026e-11
-4.378998861214962e-19
9.879842099050492e-11
1.766028679423406e-19
1.033961272299496e-10
5.16521704759504e-20
1.084352018924258e-10
1.133889300276225e-10
-2.138905360675216e-19
7.053288053563315e-18
2.07992511197946e-12
-5.299998516919441e-18
6.19706661377443e-12
1.746168155348831e-18
1.022206363172454e-11
-6.504564648542832e-18
1.414181848561229e-11
1.386869651788884e-18
1.794475775970781e-11
-1.232040280038456e-17
2.162092469860996e-11
8.105262334456357e-18
2.516177278648263e-11
-1.36366147730002e-17
2.85602794954533e-11
1.828632177324898e-18
3.181112224692969e-11
-5.706035526045459e-18
3.491081375028202e-11
-4.934323018655973e-18
3.785775031171466e-11
-1.751372512524914e-18
4.065238457633037e-11
-2.761477323112849e-18
4.329736004365206e-11
1.615913812360041e-18
4.579741720852721e-11
6.421636751479689e-18
4.815958134760792e-11
-1.92654925758916e-18
5.039303906187521e-11
-6.4893273202608e-18
5.250919890689785e-11
1.628186294877415e-18
5.452148909091197e-11
2.763068516740258e-18
5.644538515371079e-11
4.196745613546153e-18
5.829810950075845e-11
-3.698639841177999e-19
6.009864050540921e-11
-7.859854656883448e-19
6.186729669632557e-11
2.742519964985007e-19
6.36255058046692e-11
-4.56757064187005e-18
6.539572761216717e-11
-1.538443287237552e-18
6.720103774088675e-11
-1.948503241559493e-18
6.906497717764283e-11
-3.780375830930284e-18
7.101134685633444e-11
1.059390813848737e-18
7.306413834601844e-11
-3.82835497174737e-18
7.524755569914857e-11
8.258329271646141e-19
7.758613783715947e-11
7.337937816213723e-19
8.010503231483206e-11
3.814842810497148e-19
8.283032164471065e-11
4.445693169715817e-19
8.578977522409233e-11
1.093325465562208e-18
8.901342411578432e-11
-4.339253729824246e-18
9.253432359041846e-11
-4.2513363228938e-19
9.638940258270518e-11
-1.674569468310993e-18
1.006201598416633e-10
9.651402493096623e-19
1.052730889900843e-10
-2.649350844301373e-20
1.104000180022839e-10
1.154737306570712e-10
-7.889813714061497e-20
-2.883537156388415e-18
2.177958140670704e-12
8.550729481370679e-18
6.487960628520337e-12
5.298186664634664e-19
1.069860152826427e-11
2.172051909786872e-18
1.479549980784111e-11
-2.461718386283043e-18
1.876584700965699e-11
5.799752207234746e-19
2.259865874383861e-11
9.017013538973785e-18
2.628438480051167e-11
4.541734570180373e-18
2.981525160980892e-11
1.443788165844984e-18
3.318521621220807e-11
-4.994739060968882e-18
3.639027998724581e-11
-4.550522785158339e-18
3.942851609695932e-11
1.552143566143909e-18
4.230027063257994e-11
-6.802444446329106e-18
4.500819058705414e-11
-3.00981170853523e-18
4.755724722254734e-11
6.498820933301184e-19
4.995493561609775e-11
-1.035404862956678e-17
5.221110245111914e-11