/*--------------------------------*- C++ -*----------------------------------*\
| =========                 |                                                 |
| \\      /  F ield         | OpenFOAM: The Open Source CFD Toolbox           |
|  \\    /   O peration     | Version:  2206                                  |
|   \\  /    A nd           | Website:  www.openfoam.com                      |
|    \\/     M anipulation  |                                                 |
\*---------------------------------------------------------------------------*/
FoamFile
{
    version     2.0;
    format      ascii;
    arch        "LSB;label=32;scalar=64";
    class       surfaceScalarField;
    location    "1";
    object      meshPhi;
}
// * * * * * * * * * * * * * * * * * * * * * * * * * * * * * * * * * * * * * //

dimensions      [0 3 -1 0 0 0 0];

oriented        oriented;

internalField   nonuniform List<scalar> 
35915
(
1.452138401558807e-18
1.540804508273844e-13
0
4.602010999693864e-13
1.452141108396738e-18
7.619319388960082e-13
-1.452142437251205e-18
1.058674687154256e-12
0
1.349892054039456e-12
-1.45214504667982e-18
1.635149850590106e-12
0
1.914114085288516e-12
1.452147597175838e-18
2.186516112784426e-12
0
2.452178772364984e-12
0
2.711033813587566e-12
0
2.963100114229857e-12
0
3.208501105947198e-12
-6.567645802187319e-27
3.447483652026028e-12
0
3.680400621763901e-12
0
3.907718151147091e-12
7.810263827014066e-27
4.130017094983187e-12
-1.452158231352918e-18
4.347998835453605e-12
-7.260796589120392e-19
4.562470760743598e-12
-7.260801949670544e-19
4.774359334269199e-12
0
4.984683956224017e-12
1.452162430285774e-18
5.194564224251194e-12
0
5.405203959939212e-12
0
5.617889756691826e-12
0
5.833961936978677e-12
0
6.054816004477661e-12
0
6.281882314156109e-12
0
6.516601385939127e-12
-7.260842847492788e-19
6.760403574793509e-12
0
7.014696001492185e-12
-3.630424895952768e-19
7.280834962014585e-12
3.630426423980891e-19
7.560082363432255e-12
3.630427777767064e-19
7.85358829826623e-12
-3.630429061191592e-19
8.16235038465091e-12
-3.630430117418638e-19
8.48717601076993e-12
0
8.828638770747106e-12
-1.815215915611453e-19
9.187029091986547e-12
-4.491890545188909e-27
9.562303410377841e-12
1.815216462086923e-19
9.954039154047597e-12
0
1.036141005703039e-11
1.073914139126247e-11
0
5.598678348333695e-28
3.060523986992192e-13
1.452139728473823e-18
9.1395325942795e-13
1.452141055588935e-18
1.512881365496595e-12
1.452142367814209e-18
2.101628538908476e-12
0
2.679147788865567e-12
3.219825853983292e-27
3.244591067349897e-12
0
3.797288939191836e-12
1.452147443855444e-18
4.336691044465313e-12
1.452148667215677e-18
4.862482269434046e-12
0
5.374489809789924e-12
-1.452151078369596e-18
5.872751421100545e-12
-1.452152256246113e-18
6.357538652986376e-12
1.452153410180714e-18
6.829317641433835e-12
1.45215455202313e-18
7.28880138571819e-12
0
7.73692215780046e-12
0
8.174838763037899e-12
1.452157868422559e-18
8.603951061507972e-12
0
9.025873829588937e-12
0
9.442445472740426e-12
0
9.855700434935337e-12
-4.765789882113179e-27
1.02678837200082e-11
-7.260814542886575e-19
1.068138409335978e-11
0
1.109876602897045e-11
0
1.15227159803305e-11
5.534171732258875e-27
1.195600898128841e-11
0
1.240149702895571e-11
0
1.286206551959213e-11
0
1.334057806740702e-11
1.452168610235976e-18
1.383985762676982e-11
7.260846260782958e-19
1.436261824177479e-11
0
1.491141131716723e-11
-3.582994050006937e-27
1.548856172432082e-11
0
1.60961169764359e-11
0
1.673574557894942e-11
0
1.740866006627575e-11
-1.815214925251241e-19
1.811552116075934e-11
-3.630430459759617e-19
1.88563520965926e-11
1.815215452580169e-19
1.963039340611288e-11
0
2.043603902577432e-11
2.118385619281904e-11
0
1.452138367920852e-18
4.555411922720708e-13
-1.452139695781997e-18
1.36017463628637e-12
1.452141004010693e-18
2.251014230743304e-12
-2.148776088369043e-27
3.126295629145301e-12
0
3.984451975646003e-12
0
4.824227171733324e-12
1.452146070767349e-18
5.64460181720626e-12
0
6.444787401669703e-12
0
7.224249538692149e-12
0
7.982752982076107e-12
1.452150858433059e-18
8.720360173713822e-12
-1.452152019146307e-18
9.437451573522638e-12
0
1.013474598930695e-11
0
1.081329186400363e-11
0
1.147448760556444e-11
0
1.212007287413835e-11
1.452157513028122e-18
1.275214019918014e-11
-7.260792746017988e-19
1.337311174524209e-11
0
1.398573785983681e-11
0
1.459307383925983e-11
-4.630084043406797e-27
1.519845959866715e-11
-4.808782255767575e-27
1.580550369854883e-11
-4.989554855172622e-27
1.641803687637413e-11
0
1.704008300383027e-11
5.362471065362703e-27
1.767581987912465e-11
7.260829217669398e-19
1.832952840220143e-11
0
1.900554029779629e-11
0
1.970819309919076e-11
7.26083993922755e-19
2.044173285503659e-11
-3.630421497959215e-19
2.121028218234065e-11
-3.630422933482054e-19
2.201774006900437e-11
3.630424273654951e-19
2.286767731996678e-11
3.63042544455632e-19
2.376326540248118e-11
0
2.47071457537898e-11
0
2.570130344520193e-11
1.815214042793772e-19
2.674693794189887e-11
3.630428616419377e-19
2.78442888464875e-11
0
2.899247906820716e-11
0
3.018932749725141e-11
3.130205943717434e-11
-9.076073228349346e-20
5.402233494006197e-28
6.021808930027678e-13
0
1.797736920092225e-12
0
2.974513911221936e-12
0
4.130152143726208e-12
0
5.262572157394968e-12
1.452144724237571e-18
6.37010399463791e-12
0
7.451355056061458e-12
4.025835560417454e-27
8.505266733781807e-12
0
9.531123124242189e-12
0
1.052859459234332e-11
-1.452150655928145e-18
1.149775955347964e-11
-1.452151783921264e-18
1.243911609064005e-11
-1.452152905195021e-18
1.335360809290306e-11
1.452154002023014e-18
1.424263251607887e-11
0
1.510804228700698e-11
1.452156136721622e-18
1.595216082492251e-11
0
1.677777187649149e-11
0
1.758809773378045e-11
-7.260795884709509e-19
1.838680939916305e-11
7.260800711438062e-19
1.917798011698774e-11
-1.452161081118115e-18
1.996606649578626e-11
-4.643730059533589e-27
2.075587656122369e-11
-7.260814361277601e-19
2.155252909630945e-11
0
2.236140572084434e-11
0
2.318808118885463e-11
0
2.40383001543984e-11
-7.26083026228433e-19
2.491787552197213e-11
7.260833754308043e-19
2.583263471744869e-11
0
2.678831513419634e-11
-3.630420037852041e-19
2.779050749975156e-11
0
2.884452518347262e-11
-3.325711877384081e-27
2.995530545123883e-11
7.260847686200685e-19
3.112726134745595e-11
0
3.236416988051855e-11
0
3.36689788885815e-11
1.949317956149388e-27
3.504363568739041e-11
3.630426965069465e-19
3.648887505827692e-11
1.815213705571092e-19
3.800399852333501e-11
9.076069141380606e-20
3.958660134365666e-11
4.106130893112569e-11
-9.076069196455281e-20
5.285955473613817e-28
7.456607435741424e-13
-1.452139630538961e-18
2.225758663667851e-12
0
3.681912296410061e-12
0
5.111147665173857e-12
-1.452143398139961e-18
6.510863992566214e-12
-1.452144617640214e-18
7.878933897843856e-12
0
9.213607555876814e-12
0
1.05135228622008e-11
1.452148169319606e-18
1.177777658752013e-11
-2.904298640558573e-18
1.300593018646696e-11
1.452150448710265e-18
1.419805917019069e-11
0
1.535477198410259e-11
1.45215265606149e-18
1.64772361463451e-11
0
1.756718550852831e-11
0
1.862693332493888e-11
1.452155831228319e-18
1.965937660893527e-11
7.332223940692845e-27
2.066798596797751e-11
0
2.165679979515557e-11
0
2.263039813061193e-11
4.146041675425569e-27
2.359388814026257e-11
-7.260803373194818e-19
2.455284603027076e-11
0
2.551329526500014e-11
-4.619310872780375e-27
2.648165574221921e-11
-7.260816293995686e-19
2.746467263840119e-11
7.260820280120336e-19
2.846936122749347e-11
0
2.950295024759459e-11
0
3.057276282570494e-11
7.260831074225741e-19
3.168616710507069e-11
5.681918645471733e-27
3.285046007422272e-11
3.630418632379025e-19
3.40727818909007e-11
0
3.535997357261779e-11
-3.17328856552501e-27
3.671843904363349e-11
0
3.815402751187272e-11
3.630423367364801e-19
3.967183597828467e-11
0
4.127600738979038e-11
1.862844704734916e-27
4.29695360529281e-11
3.630425492163172e-19
4.475397575431253e-11
-1.815212936924216e-19
4.662919144519937e-11
-9.076065295844789e-20
4.859300492005704e-11
5.042812275136283e-11
-9.076065359504799e-20
-1.452138319907483e-18
8.857164550321781e-13
0
2.643438287361365e-12
0
4.371882133050169e-12
0
6.067437979470641e-12
0
7.726937263633652e-12
1.452144519125848e-18
9.347790825237379e-12
3.380231744226442e-27
1.092784369296354e-11
0
1.246544188271446e-11
0
1.395944111051734e-11
0
1.540929682498911e-11
1.452150252169764e-18
1.681506130308411e-11
-5.385293335203694e-27
1.817744609190766e-11
-1.452152426177709e-18
1.949783072167222e-11
0
2.0778269966236e-11
0
2.202154321586513e-11
1.452155537068328e-18
2.323111236522635e-11
-1.452156526352689e-18
2.441114940396332e-11
-3.676576189710928e-27
2.556648994837819e-11
0
2.670264921487282e-11
7.260796934638042e-19
2.782576393450116e-11
-4.115415376955765e-27
2.89425444324378e-11
7.260805774391993e-19
3.006024558524918e-11
7.260810002109187e-19
3.118660147471541e-11
0
3.23297513288301e-11
0
3.349816255858255e-11
7.260821775478228e-19
3.470057993310255e-11
7.260825281693556e-19
3.594589633951901e-11
0
3.724307146326038e-11
5.388057847144698e-27
3.860103159059049e-11
3.630417366359607e-19
4.002855198553994e-11
3.630418749169925e-19
4.153410731976005e-11
-3.006125871060304e-27
4.312574824090471e-11
3.630421092935626e-19
4.481091985548346e-11
3.630422038227945e-19
4.659627875960167e-11
-3.389361855869053e-27
4.848745779276823e-11
1.768034784691378e-27
5.048881772246051e-11
-1.815212083324791e-19
5.26031553645808e-11
-1.815212246921516e-19
5.483135361843831e-11
-9.076061953843557e-20
5.71719995547116e-11
5.936657938437895e-11
0
5.025473448635444e-28
1.022125850451418e-12
1.45213956668997e-18
3.050100547477575e-12
-1.477958639322765e-27
5.043311084203238e-12
0
6.997446065810951e-12
0
8.908751718099385e-12
1.452144419265177e-18
1.077413934563214e-11
0
1.259104302225702e-11
3.692128074011855e-27
1.435744282543707e-11
0
1.607197374632055e-11
0
1.773394021128273e-11
0
1.934336255026684e-11
0
2.090104089072302e-11
1.452152191291623e-18
2.240854208856996e-11
-1.452153229038079e-18
2.386825636128971e-11
0
2.528340164453796e-11
-1.452155246587705e-18
2.665801778350971e-11
0
2.799695927226807e-11
7.260785910358892e-19
2.930589525374645e-11
-7.260790583490639e-19
3.059126014708786e-11
7.260795176361945e-19
3.186022750918318e-11
7.260799568822264e-19
3.312066937481046e-11
0
3.43810807455769e-11
-7.260808066632568e-19
3.565051569578973e-11
0
3.693853509560997e-11
0
3.825510641354272e-11
0
3.961049916262339e-11
7.260823070890647e-19
4.101522100632712e-11
-7.260826385500661e-19
4.247988125774292e-11
-7.260829499691184e-19
4.401510665559089e-11
-2.625064582147078e-27
4.563139469841015e-11
3.630417567962724e-19
4.733899456928999e-11
-3.630418791417344e-19
4.9147743044417e-11
0
5.106688442807485e-11
0
5.310489193978491e-11
0
5.526919616468528e-11
0
5.75659265731471e-11
0
5.999957026856679e-11
1.815211685780761e-19
6.257257555396242e-11
0
6.528492790796452e-11
6.783773832379907e-11
0
-1.452138289537662e-18
1.154705960536297e-12
-1.452139536801881e-18
3.44519217979413e-12
1.452140761243516e-18
5.695255260798604e-12
0
7.899865000875221e-12
0
1.00546199727014e-11
-1.452144320613684e-18
1.215590145087907e-11
0
1.42006730168453e-11
1.452146594010312e-18
1.618655752228661e-11
0
1.811191260026051e-11
0
1.997587568135683e-11
-1.45214987675454e-18
2.177842498355764e-11
1.452150928891456e-18
2.352040274627981e-11
0
2.52035820288551e-11
-1.452152987902767e-18
2.683066090188738e-11
0
2.840529584637035e-11
0
2.993209594522889e-11
0
3.141661562254532e-11
7.260784376043971e-19
3.286533721801045e-11
3.463744881439934e-27
3.428563758768207e-11
0
3.568574744421513e-11
-7.26079785613008e-19
3.707468020208397e-11
-3.817181112713343e-27
3.846220438703808e-11
0
3.985872746511955e-11
7.260810105755033e-19
4.127523775716509e-11
1.45216278549815e-18
4.272320278924521e-11
0
4.421447345158116e-11
0
4.576119396609847e-11
0
4.737568426328028e-11
0
4.90703165505549e-11
-3.630415153009435e-19
5.085740204559014e-11
-3.630416460028049e-19
5.274907044893501e-11
-3.630417703430108e-19
5.475709713969662e-11
0
5.689274344047175e-11
0
5.916655186604613e-11
3.630420586045269e-19
6.158808909511308e-11
-1.815210645228758e-19
6.416567296853943e-11
-3.630421870315281e-19
6.690597896021057e-11
-1.815211136211887e-19
6.981365971714407e-11
-9.076056354147676e-20
7.289081067306247e-11
7.579929881817993e-11
-9.076056583179816e-20
1.452138274960667e-18
1.283304310883896e-12
-1.452139506038809e-18
3.828284803932559e-12
-1.452140715683854e-18
6.327017637077307e-12
0
8.773691357958785e-12
-1.452143071119913e-18
1.116323219992473e-11
1.452144222635898e-18
1.349143767832161e-11
-1.452145349822919e-18
1.575477038740942e-11
1.452146464555608e-18
1.795045529337188e-11
0
2.007653927183976e-11
0
2.213196807140933e-11
1.452149686714422e-18
2.411663568603624e-11
-2.904301457442287e-18
2.603144389281098e-11
1.452151748131154e-18
2.787832112971904e-11
0
2.966027622464958e-11
1.452153737355775e-18
3.138139694335704e-11
-1.452154703983296e-18
3.30468616064038e-11
0
3.466292021156908e-11
0
3.623687410379829e-11
0
3.777705564529921e-11
0
3.929275560876369e-11
7.260796142695809e-19
4.079416073537319e-11
7.260800321916203e-19
4.22923101707802e-11
7.260804370312267e-19
4.37989720334166e-11
-7.260808279707868e-19
4.532657516403218e-11
0
4.688811618899782e-11
0
4.84970433492528e-11
7.260819082316896e-19
5.016714904222346e-11
7.26082234123652e-19
5.191247688506736e-11
0
5.374720554364845e-11
-2.259627399907706e-27
5.568553256164033e-11
0
5.774154657241681e-11
-2.424974504164426e-27
5.992909951103847e-11
3.630417812379704e-19
6.226165559196363e-11
0
6.475207639279796e-11
3.63041961259393e-19
6.741240593799429e-11
1.433629148680939e-27
7.025358317574313e-11
-1.504005838732088e-27
7.328504990095746e-11
0
7.651431366204051e-11
-9.076054050139327e-20
7.994639014026473e-11
8.320547353508901e-11
0
4.587645374611422e-28
1.407830869056798e-12
0
4.199083636011196e-12
0
6.938100130019118e-12
1.452141839053994e-18
9.618239728455296e-12
0
1.223369533539536e-11
2.569559682385251e-27
1.477963278671839e-11
-1.452145234724771e-18
1.725198609872631e-11
1.452146332007893e-18
1.964751410159916e-11
0
2.196393984449846e-11
1.452148466522808e-18
2.419997818613627e-11
0
2.635541275808611e-11
1.452150521460945e-18
2.843116711954967e-11
0
3.042934106061567e-11
0
3.235322221951258e-11
0
3.420732964665155e-11
-2.904308883875699e-18
3.599739928327949e-11
0
3.773039122210988e-11
-7.260781475796421e-19
3.941443452622208e-11
7.260785914607293e-19
4.105881125544832e-11
0
4.267388385957584e-11
7.260794528014882e-19
4.427102692790053e-11
-7.260798694045343e-19
4.586255458235742e-11
0
4.74616130194046e-11
0
4.908208321684206e-11
7.260810310221746e-19
5.073847928419724e-11
0
5.244584245674529e-11
-3.781563445804338e-27
5.421962202024901e-11
-7.260820561138954e-19
5.607559544346109e-11
0
5.802975075498708e-11
0
6.009818634584991e-11
2.13231540587561e-27
6.229701803271705e-11
-2.208620349036825e-27
6.464226724335162e-11
3.630416892923495e-19
6.714974194136386e-11
-3.630417880746887e-19
6.983486091766136e-11
3.630418742152036e-19
7.271247372542248e-11
1.815209748878122e-19
7.579655573134588e-11
-1.371966288539629e-27
7.909988864549664e-11
1.815210271671434e-19
8.263357695968002e-11
0
8.640644385844013e-11
9.000714974831403e-11
9.076052259408812e-20
-1.452138244112341e-18
1.528230453830692e-12
-8.766592365607649e-28
4.557443462373256e-12
0
7.528261684874848e-12
-1.452141776504299e-18
1.043316450369932e-11
-1.452142911311101e-18
1.326555486030236e-11
1.452144023741839e-18
1.601991753835691e-11
-1.452145119089217e-18
1.869158972581882e-11
1.452146199052949e-18
2.127685395197811e-11
0
2.377304118888593e-11
0
2.61786121714263e-11
0
2.849321983876283e-11
1.452150326651301e-18
3.071778920220307e-11
-4.590325627117347e-27
3.285454929207585e-11
0
3.490706800905532e-11
0
3.688028987967634e-11
0
3.878052008288874e-11
1.452155109557099e-18
4.061540992868197e-11
-2.786090381091091e-27
4.239393362383966e-11
-7.260784443890512e-19
4.412633163863338e-11
7.260788785836016e-19
4.582405842990662e-11
-3.008984673321503e-27
4.749968224356667e-11
0
4.916679653427932e-11
7.260801031458446e-19
5.083991686371373e-11
0
5.253437489454135e-11
0
5.426619931522134e-11
0
5.60519909561727e-11
0
5.790883711373884e-11
0
5.985420409200529e-11
0
6.190586023958197e-11
3.630412384593272e-19
6.4081784464931e-11
-3.630413725443013e-19
6.640011250731565e-11
3.630414960079703e-19
6.887907449490963e-11
-3.630416102931146e-19
7.153690491229619e-11
0
7.439175837651554e-11
0
7.746153973704848e-11
-1.81520935735475e-19
8.076370077662185e-11
-3.630419352768727e-19
8.431491348038366e-11
1.300290598864528e-27
8.813061551701111e-11
-9.076050319553892e-20
9.222443228817949e-11
9.615239903795757e-11
0
1.452138228964662e-18
1.6445146822278e-12
-8.460449751531104e-28
4.903372995829232e-12
0
8.097518275193288e-12
0
1.121848020505755e-11
-1.452142826739304e-18
1.425881077465256e-11
1.452143926369894e-18
1.721226869903046e-11
0
2.007353480035218e-11
0
2.28383644820459e-11
0
2.550366178800934e-11
0
2.80675970255536e-11
0
3.052966194674947e-11
-2.904300257684348e-18
3.289074525947975e-11
1.452151101510158e-18
3.515320378209138e-11
-1.452152064472169e-18
3.732088132129425e-11
0
3.939912464558935e-11
0
4.139480526738947e-11
0
4.33162874959502e-11
7.260778633432774e-19
4.517339939458134e-11
0
4.697735726966886e-11
0
4.874070177654375e-11
-2.76946318590454e-27
5.04772093391033e-11
-7.260795524634838e-19
5.22017643618586e-11
0
5.393025031951563e-11
0
5.567942922973802e-11
2.973760217109463e-27
5.746679353508396e-11
0
5.931047897481807e-11
0
6.122913389257357e-11
0
6.32418437252231e-11
3.224945617752122e-27
6.536804823108897e-11
-3.630411615668872e-19
6.762752696853549e-11
3.630412970835575e-19
7.004035573188019e-11
-3.630414222552836e-19
7.262691090783055e-11
-3.630415346291892e-19
7.540786802328751e-11
0
7.840416689410928e-11
3.630417273517967e-19
8.163698984302884e-11
1.815209033810938e-19
8.512758018254434e-11
0
8.889704036785244e-11
0
9.296590797285005e-11
-9.076048847049095e-20
9.735358790455979e-11
1.015874008495829e-10
0
4.134088872708213e-28
1.756728570564893e-12
1.452139378782202e-18
5.237036327878981e-12
1.452140522959961e-18
8.64614725908789e-12
0
1.197457164882143e-11
0
1.521396261352538e-11
-1.452143822128944e-18
1.835726131505809e-11
-1.452144882761756e-18
2.139847478394707e-11
1.452145928019195e-18
2.43327601432408e-11
0
2.715655965725074e-11
-2.904295919109575e-18
2.986770673753934e-11
0
3.246549709760819e-11
0
3.495078168982294e-11
-4.101051149453875e-27
3.73260146256797e-11
0
3.959528657518375e-11
0
4.176437268729729e-11
0
4.384070790355868e-11
0
4.583338260172309e-11
0
4.775307579744927e-11
7.260781561880032e-19
4.961200722377464e-11
0
5.142383132511476e-11
-7.260789953316411e-19
5.320352689484888e-11
0
5.496728235649536e-11
0
5.673233602863362e-11
0
5.851684107620002e-11
2.662610185177506e-27
6.033973046163517e-11
0
6.222057753989264e-11
0
6.417947988734736e-11
-7.260815707305906e-19
6.623700557275241e-11
2.830531214557815e-27
6.84141234547381e-11
3.630410863243311e-19
7.07322147987937e-11
-3.630412236955094e-19
7.3213116841447e-11
-1.517450234067826e-27
7.587917651933471e-11
3.630414690929168e-19
7.875337970936899e-11
-3.630415742597117e-19
8.185942383560909e-11
0
8.522179338037856e-11
8.799022217223276e-28
8.886578311845946e-11
-9.25442440198986e-28
9.281734419056694e-11
0
9.710282417082295e-11
9.076047605197581e-20
1.017484457495679e-10
1.062578423543028e-10
0
3.988360173582917e-28
1.864988289843053e-12
-7.864534927905278e-28
5.558767449970679e-12
0
9.174700448671944e-12
0
1.270220846770793e-11
0
1.613197314379316e-11
0
1.94560817822973e-11
2.490211368676497e-27
2.266777178112671e-11
1.452145787824022e-18
2.576157584441081e-11
0
2.873342653633527e-11
0
3.158078261712708e-11
1.452148759295664e-18
3.430270600622438e-11
-1.452149723042155e-18
3.689997359699456e-11
0
3.937512953343978e-11
0
4.173252732241075e-11
1.452152514864882e-18
4.397834871116408e-11
0
4.612060949607547e-11
0
4.816912902769866e-11
-7.260775869729522e-19
5.013548083805665e-11
-7.26078012519058e-19
5.203289534759517e-11
0
5.387617128468273e-11
-7.260788453166044e-19
5.568151449850125e-11
0
5.746640436235605e-11
0
5.924943403869799e-11
7.260800206054865e-19
6.105012460549261e-11
-7.260803884043565e-19
6.288874353915788e-11
7.260807486554667e-19
6.478621758630903e-11
0
6.676394543811918e-11
-7.260814210982081e-19
6.884377013964332e-11
7.260817381616513e-19
7.104793843005607e-11
3.630410167412706e-19
7.339915447171489e-11
-3.630411565190549e-19
7.592068295182916e-11
0
7.863654076459967e-11
0
8.157171918817683e-11
-3.630415142041163e-19
8.475242348725268e-11
7.26083220995008e-19
8.820635172338112e-11
0
9.196287772423458e-11
-7.62686313570574e-28
9.605310481268549e-11
-1.815209104495957e-19
1.005097917478048e-10
0
1.053669461265063e-10
1.101109340149661e-10
0
3.848650005533831e-28
1.969455027168014e-12
0
5.86906154093072e-12
-1.118034431549195e-27
9.684001205640165e-12
0
1.340255091908386e-11
0
1.70143351622964e-11
-1.452143610764954e-18
2.051051913360194e-11
2.382953120190327e-27
2.38835371991866e-11
-1.452145640356842e-18
2.712722068087807e-11
0
3.023694597445172e-11
0
3.320975798106782e-11
0
3.60444644962808e-11
1.452149508492459e-18
3.874174947654509e-11
0
4.130422967279171e-11
1.452151355607982e-18
4.373649238591944e-11
0
4.604515645642559e-11
1.45215315235242e-18
4.823883305686575e-11
-1.452154024485087e-18
5.032810245757928e-11
0
5.232545158481707e-11
0
5.424517382328355e-11
0
5.610322235028603e-11
-7.260786966790247e-19
5.79170779913399e-11
0
5.9705534303726e-11
0
6.148851025098558e-11
0
6.328684690367402e-11
0
6.512210268800257e-11
-7.260805971196153e-19
6.701638493797348e-11
0
6.899220032531574e-11
0
7.107239822605472e-11
7.260815995020621e-19
7.328015910346849e-11
-3.630409512106637e-19
7.56390961576719e-11
-3.63041093900444e-19
7.817344410340559e-11
-1.051379199880162e-27
8.090836121459238e-11
3.630413489406536e-19
8.387032430553362e-11
0
8.70875803455837e-11
-3.630415619910284e-19
9.059066632417086e-11
-1.815208241972846e-19
9.44128274662712e-11
3.630417232308774e-19
9.859040059657935e-11
1.815208920893244e-19
1.031629593532115e-10
-9.076045716262343e-20
1.081731675218675e-10
1.130980640926329e-10
0
3.717365780991425e-28
2.070358220259514e-12
0
6.168595296561909e-12
0
1.017518219681432e-11
0
1.407715859817753e-11
-1.452142472524692e-18
1.786304390533756e-11
0
2.152301586346118e-11
-1.452144501243468e-18
2.504861722655246e-11
0
2.843294889167535e-11
0
3.167078171332363e-11
0
3.475869590884715e-11
1.452148361746417e-18
3.76952204634264e-11
-2.904298587644579e-18
4.048091880627648e-11
-1.452150209581507e-18
4.311846432158701e-11
-1.452151112605336e-18
4.561270859921459e-11
-1.452151999617706e-18
4.797069886005915e-11
-2.904305759434165e-18
5.020167214779752e-11
0
5.231701176443109e-11
-7.26077300630832e-19
5.433016449888438e-11
7.260777192185489e-19
5.62565273599737e-11
7.260781348669637e-19
5.811329219784779e-11
-7.260785416532077e-19
5.991922643142774e-11
-7.26078940964982e-19
6.169447555759443e-11
-7.260793322274643e-19
6.346029886236655e-11
0
6.523882836607883e-11
1.768212331358121e-27
6.705280453447873e-11
0
6.892536717102717e-11
-7.260807995103772e-19
7.087988551680859e-11
0
7.293987983515868e-11
-7.26081462200121e-19
7.512900834244683e-11
3.630408856016093e-19
7.747123420380467e-11
0
7.999110724770775e-11
-8.292051252018774e-28
8.271418363361565e-11
0
8.566763284520259e-11
0
8.888097682811793e-11
-8.287296612468455e-28
9.238685090978683e-11
1.815208042355744e-19
9.622184603888532e-11
-4.271832987272413e-28
1.004272551837637e-10
-1.81520875849841e-19
1.05049599006049e-10
-1.81520900604447e-19
1.10140833516244e-10
1.151783229831269e-10
0
3.596353182819103e-28
2.167976679429143e-12
0
6.458209504137041e-12
-1.040595998368623e-27
1.064963166522184e-11
1.4521413486129e-18
1.472799043781424e-11
0
1.868061302208453e-11
-1.452143376244577e-18
2.249661565105611e-11
-1.452144362722361e-18
2.616661461535268e-11
-2.904290667020343e-18
2.968289325876353e-11
0
3.303957187858268e-11
0
3.623275148681182e-11
0
3.926062998144562e-11
0
4.212363429074984e-11
1.45214996426082e-18
4.482450459730352e-11
1.452150853235728e-18
4.736834516277254e-11
1.452151734365698e-18
4.976266498764303e-11
-1.452152597931275e-18
5.201736474214779e-11
0
5.41446786807102e-11
0
5.615908751367108e-11
7.260775683518137e-19
5.807717464583523e-11
1.652299435184372e-27
5.991742142510206e-11
7.260783831490129e-19
6.169998786973583e-11
-7.260787834080919e-19
6.344641643243889e-11
-1.567333825804485e-27
6.517933576442853e-11
0
6.692214995808469e-11
0
6.869869729475566e-11
0
7.053298450368508e-11
-1.452161308879139e-18
7.244897329786867e-11
0
7.447042644752442e-11
-7.260813278586311e-19
7.662093827500431e-11
-3.630408225995116e-19
7.892411471969488e-11
0
8.140393201599985e-11
0
8.408534513861662e-11
0
8.69951024514912e-11
0
9.016279124644297e-11
-3.630414746826817e-19
9.362202123483478e-11
1.815207856750044e-19
9.741171985381545e-11
-2.607207600443985e-28
1.015773869126816e-10
-1.815208617570121e-19
1.061721822435278e-10
-1.815208890061091e-19
1.112576416047867e-10
1.163229206178548e-10
0
-1.452138120171367e-18
2.262646574378338e-12
1.452139191932378e-18
6.73891339900842e-12
0
1.110904425483192e-11
-1.45214126464398e-18
1.53574054345646e-11
0
1.947006150542636e-11
0
2.343500402016842e-11
-1.452144216716681e-18
2.724185092523722e-11
0
3.08820273514989e-11
0
3.434895003574589e-11
0
3.763818052122938e-11
0
4.074757327544183e-11
0
4.367740856084716e-11
-1.452149714165006e-18
4.643047593266478e-11
0
4.901216136709029e-11
-1.452151453750006e-18
5.143046831739028e-11
-1.452152305996772e-18
5.369601045295008e-11
0
5.582195502626747e-11
7.260769959786089e-19
5.782390161932488e-11
7.260774096935905e-19
5.971971587387383e-11
-7.260778170823819e-19
6.152930441027705e-11
-1.431278912295679e-27
6.327431350901755e-11
0
6.497779148898353e-11
-7.260790126675966e-19
6.666380897336882e-11
0
6.835705374371936e-11
0
7.008241107216847e-11
-7.260801459381462e-19
7.186459778296338e-11
0
7.372785294727742e-11
0
7.569574547501653e-11
1.051934910916214e-27
7.779114652431073e-11
0
8.003641900527542e-11
0
8.245387572930823e-11
-4.351688863768632e-28
8.506653742462839e-11
0
8.789920949584322e-11
0
9.097989277506716e-11
0
9.434146800088741e-11
-1.815207684210333e-19
9.802356980117072e-11
-1.815208128514838e-19
1.020745383652379e-10
1.815208500405697e-19
1.065532440540188e-10
-9.076043983813679e-20
1.115305431674193e-10
1.165206907891882e-10
0
2.904276196805065e-18
2.354762160285001e-12
-6.663075630931688e-28
7.011891924880195e-12
0
1.155538252872565e-11
1.45214117533925e-18
1.596814667532633e-11
0
2.023491369183036e-11
-1.452143117335471e-18
2.434248147459092e-11
0
2.827939992299654e-11
-1.452144991114426e-18
3.203618222603544e-11
0
3.56054878310198e-11
-1.452146809862525e-18
3.898230686522402e-11
0
4.216412422728752e-11
0
4.515104519728228e-11
0
4.794593193708166e-11
0
5.055446375473396e-11
0
5.298518938080797e-11
1.452152002371352e-18
5.52495109952188e-11
1.452152838107575e-18
5.736161597664966e-11
-1.380765380973048e-27
5.933834766247965e-11
0
6.119900785792055e-11
-7.260776500020089e-19
6.296507584778264e-11
-7.260780523847066e-19
6.465985334875095e-11
-7.260784503323546e-19
6.630805282868692e-11
0
6.793532120559135e-11
0
6.956770691336837e-11
0
7.123114076279181e-11
7.260799852806994e-19
7.295093059788538e-11
1.452160703195909e-18
7.475131040737812e-11
0
7.665515788392264e-11
7.907065880843904e-28
7.868388406185719e-11
-3.630406931439836e-19
8.085758942183085e-11
-3.63040851973421e-19
8.319557939948871e-11
-2.771724147412133e-28
8.571726253219882e-11
-3.630411450946542e-19
8.844352635886679e-11
0
9.139855259125494e-11
-3.630413968389587e-19
9.461209116053307e-11
1.81520752302405e-19
9.812208132459009e-11
-1.815207994496992e-19
1.019774898698707e-10
-9.758747213520886e-29
1.062411108315383e-10
0
1.109920747862512e-10
1.157848443136822e-10
0
-1.452138074331867e-18
2.444778682102183e-12
0
7.278491938905983e-12
0
1.19908893125742e-11
0
1.656334424138613e-11
0
2.097918183601577e-11
0
2.522393590742933e-11
-2.904287797632164e-18
2.928502514042577e-11
0
3.315198761396485e-11
0
3.681668264774891e-11
0
4.027348684129004e-11
0
4.351947994691102e-11
-1.452148313773384e-18
4.655459661852951e-11
1.452149163259615e-18
4.938176944682046e-11
0
5.200700374449768e-11
0
5.443945886576457e-11
0
5.669140972488722e-11
0
5.87781908887951e-11
0
6.071805136349809e-11
0
6.253190845666864e-11
-7.260774710991204e-19
6.424303266409917e-11
0
6.58766236456051e-11
0
6.745929181208382e-11
-9.658538671101988e-28
6.90184694840306e-11
0
7.058175016914916e-11
-7.260794387720175e-19
7.217619226260882e-11
0
7.382764089912346e-11
0
7.556011152078105e-11
0
7.739530921962309e-11
-7.260809078446929e-19
7.935239712185801e-11
0
8.144806028188488e-11
3.630407895857832e-19
8.369701175198894e-11
3.63040946020435e-19
8.611302287362445e-11
0
8.871056128793164e-11
3.630412320499738e-19
9.150708095585076e-11
0
9.452595837915717e-11
1.815207363641295e-19
9.78000510622364e-11
1.815207867692561e-19
1.013756284470174e-10
-2.524372551065043e-28
1.053164908996172e-10
0
1.09707851998677e-10
1.141610617916983e-10
0
1.452138049129461e-18
2.533193496756791e-12
-6.384939248129784e-28
7.540216402881304e-12
1.452140023980862e-18
1.241805937778091e-11
0
1.714648761802847e-11
0
2.170734578060824e-11
0
2.60848288061514e-11
1.452143724685809e-18
3.026516680534878e-11
1.452144608902402e-18
3.423686175726267e-11
0
3.799091912520274e-11
1.45214634049773e-18
4.152105914252918e-11
1.452147188366159e-18
4.482393245533469e-11
-1.452148032559224e-18
4.789929365237369e-11
1.452148864353658e-18
5.075015010944083e-11
0
5.338288396874671e-11
-1.452150514749492e-18
5.580732547181852e-11
0
5.80367413426099e-11
0
6.008776871487549e-11
0
6.198025031494132e-11
0
6.373696726844325e-11
0
6.538326662708608e-11
-9.520593938835252e-28
6.694655820321459e-11
-8.83359867825616e-28
6.845569378127249e-11
7.260784747680342e-19
6.994023451457523e-11
0
7.142961013810113e-11
-7.260792555359911e-19
7.295222517805444e-11
-7.260796396157158e-19
7.453455935302682e-11
-5.593061052662416e-28
7.620027668792456e-11
0
7.796951614502644e-11
0