/*--------------------------------*- C++ -*----------------------------------*\
| =========                 |                                                 |
| \\      /  F ield         | OpenFOAM: The Open Source CFD Toolbox           |
|  \\    /   O peration     | Version:  2206                                  |
|   \\  /    A nd           | Website:  www.openfoam.com                      |
|    \\/     M anipulation  |                                                 |
\*---------------------------------------------------------------------------*/
FoamFile
{
    version     2.0;
    format      ascii;
    arch        "LSB;label=32;scalar=64";
    class       volScalarField;
    location    "1";
    object      p;
}
// * * * * * * * * * * * * * * * * * * * * * * * * * * * * * * * * * * * * * //

dimensions      [0 2 -2 0 0 0 0];

internalField   nonuniform List<scalar> 
18114
(
0.0009290255415542869
0.0007421929689841392
0.0006372623845295528
0.0005972182266297218
0.000570063259348282
0.0005415981225764966
0.0005141861929250876
0.0004899224077850513
0.0004679436614141959
0.0004469127216021713
0.0004262928265667875
0.0004061080883210869
0.0003869508692668382
0.0003668516133885491
0.000345154148896251
0.0003241641623902865
0.0003044216804067051
0.0002858681913148379
0.0002686807875660724
0.0002530148828547623
0.0002389117639419881
0.0002263864782672855
0.0002154595826853441
0.0002061028997127438
0.0001982236700727527
0.0001916580221558841
0.0001862032636363534
0.0001816761525452574
0.0001779134370901569
0.0001747383310324285
0.0001719783865868273
0.0001694903764548513
0.0001671514853609984
0.0001648759367703596
0.0001625841499086068
0.0001602562471964717
0.0001578241352516127
0.0001553186265142314
0.0001525568930671002
0.0001499195658510995
0.0007253876083069552
0.0006771485860671359
0.0006234849406498536
0.0005887262642322143
0.0005624725913973161
0.0005371679167950307
0.0005129004810741271
0.0004904942191355736
0.0004696580514505027
0.0004492637294871682
0.0004288139216525608
0.0004082053880637224
0.00038691179424119
0.0003650239445996664
0.0003433246901712836
0.0003228890488299977
0.0003039219761038431
0.0002862939034118837
0.0002699594290104695
0.0002551131907368516
0.0002417166976347754
0.0002296439926834468
0.0002189770002335668
0.0002097830065098518
0.0002019474665074505
0.0001953416783921474
0.0001897870145606027
0.0001851362158248325
0.0001811901397270126
0.0001778158394168891
0.0001748192266567257
0.0001721102270762598
0.0001695194896764348
0.0001670327343053377
0.000164512993891194
0.0001620098598682219
0.0001593610255751404
0.0001567224859841851
0.0001535300893352953
0.0001505960567872287
0.0006734591454884643
0.0006468313095049021
0.0006075424482272373
0.0005744293896471744
0.000548991482669528
0.0005259567016252238
0.0005030795642610954
0.0004814141592603851
0.0004618759281113872
0.0004424686305673236
0.0004228434318899534
0.00040329191044458
0.0003837748147654628
0.0003644335047713993
0.0003456652687017437
0.0003277507737339427
0.0003108607045155708
0.0002949322161277302
0.000279704028398933
0.0002652286336642895
0.0002517259106842718
0.0002394146686141518
0.0002284234097592488
0.0002187604878163653
0.0002103517382834819
0.0002031044146807201
0.0001968632329577216
0.0001914903200004847
0.0001868065717024765
0.0001827037561230284
0.0001789870336230128
0.0001755823314865947
0.0001723425659657133
0.0001693029385419519
0.000166322933221439
0.0001634533110698166
0.0001604557959941148
0.0001575709962769037
0.0001539733083457772
0.0001507515784645141
0.0006129296220748438
0.0006001543453252762
0.0005767086766013422
0.000552566576473108
0.0005313656796326952
0.0005118615621178201
0.0004922701177352747
0.0004730975528809467
0.0004548120005943614
0.0004367717385735383
0.0004187877369011703
0.0004008647459711275
0.0003830807291178466
0.0003652704236951202
0.0003478306776423378
0.0003307214899942096
0.0003144941651048676
0.0002996541258633024
0.0002853133290725517
0.0002714837630298278
0.0002586114578474476
0.0002468234646682405
0.0002361451520136073
0.000226574828753275
0.0002181812257811817
0.000210810355975447
0.0002043682180757065
0.0001987299473843183
0.0001936388649672762
0.0001889566130857978
0.0001846205303019064
0.0001805983452952632
0.0001768714329133278
0.0001733450942203501
0.0001699100330931077
0.0001665312264965113
0.0001631746927733718
0.0001598410453842269
0.0001562937045325697
0.0001531481284834703
0.0005755029285179913
0.0005689031657120318
0.0005537962644372123
0.0005353117276151911
0.0005172884119814226
0.0005000594630835913
0.0004827945641142665
0.0004654372107733546
0.0004483648129639029
0.0004315273933599968
0.0004148127748990426
0.0003981355359110562
0.0003815816270540534
0.000365181773065323
0.0003491089371382696
0.000333459501070319
0.00031846362060032
0.0003043035213675144
0.0002907298911203476
0.0002777657697097477
0.0002656468546328696
0.0002544573841925956
0.0002441718029014377
0.0002347806216800215
0.0002262678735907956
0.0002185423046937398
0.0002116460457491423
0.0002056577968765243
0.000200120566834416
0.0001948809641217419
0.000189968217957619
0.0001854688236019785
0.0001813264724084556
0.0001773581598887637
0.0001734568919446791
0.0001696249843173404
0.0001658712137293813
0.0001621956796127225
0.0001585755496760246
0.0001551432139405835
0.0005448767765072476
0.0005405323691164259
0.0005299605845952185
0.0005159104135391926
0.0005011273721920837
0.0004863318622863166
0.00047130673788594
0.0004559715357651003
0.0004405913367674805
0.0004252674602578117
0.0004099837390083554
0.0003947139947412907
0.0003795318228308384
0.0003645153995426464
0.0003497701769158062
0.0003353737960581965
0.0003214339310719776
0.0003080650735608129
0.000295266081332289
0.0002830713616331382
0.0002715530575733682
0.0002607992430433513
0.0002507900432331156
0.0002415610632216732
0.0002330662081116474
0.0002253235919602211
0.000218257879294907
0.0002118239690391432
0.000205840995100536
0.0002002076592512582
0.0001949210385107281
0.000190072477907835
0.0001856639868853405
0.0001813574178015679
0.0001770366418539823
0.0001728384558709859
0.000168727423837715
0.0001646948338657273
0.0001608147255495823
0.000157092022361555
0.0005200835433419978
0.0005171015908432333
0.0005095642908917806
0.000498843860781049
0.0004867686191924289
0.0004741286871367982
0.0004610079903738852
0.0004474323907086473
0.0004335880805852974
0.0004196258672738754
0.0004056067600179099
0.000391563829516385
0.0003775622882781654
0.0003636813505206251
0.0003500057717934377
0.0003366154445929886
0.0003235986609640962
0.0003110424697449985
0.0002989920152343154
0.000287469264961669
0.0002765209800400848
0.0002661946869205359
0.0002565171526340948
0.0002474894621354332
0.000239116636460859
0.0002313519744157526
0.0002241583456856931
0.0002174596731683131
0.0002112306314341635
0.000205347171865945
0.0001998495966973231
0.0001946563328086587
0.0001897497223939704
0.0001849715921485551
0.000180310057614837
0.0001757718835825048
0.0001713815894163466
0.0001670825632396629
0.0001629579296614219
0.0001588647627256915
0.0004993887597960857
0.00049716584938806
0.0004914444480903799
0.0004829753620207442
0.0004729910669664575
0.0004621693904602249
0.0004507059634836407
0.0004386951107700974
0.0004262949962697745
0.0004136595366559958
0.0004008859816847803
0.0003880373350299154
0.0003751813773468191
0.0003623937807121174
0.0003497533663964418
0.0003373348759845828
0.000325212976669549
0.00031345309877182
0.0003021044896438417
0.00029119812554002
0.0002807749506717898
0.0002708705777748656
0.0002615100291853924
0.0002526931120958088
0.0002444178450843245
0.0002366518324093775
0.0002293719626542904
0.0002225307411610514
0.0002160988743463077
0.0002099994491377825
0.0002042177834018326
0.0001986975997866963
0.000193419273952458
0.0001883240012828349
0.0001833829444898125
0.000178575943170786
0.0001739103935909978
0.000169352653047027
0.000164968935288606
0.0001606395460998534
0.00048174129156461
0.0004799924432064542
0.0004754753702595244
0.0004686478520928396
0.0004603483733198421
0.0004510928065577201
0.0004410922829527312
0.0004304748830872805
0.0004193909389013346
0.0004079851568619348
0.0003963673764134715
0.0003846170939624386
0.0003728089845395371
0.0003610171043617262
0.0003493165077663357
0.0003377755404965977
0.0003264600414346756
0.000315426225253162
0.0003047232846400414
0.0002943869446340078
0.0002844528045422598
0.0002749475806685518
0.0002658912770362253
0.0002572861689144376
0.000249130710950133
0.0002414055956036627
0.0002340926442736988
0.0002271559689475725
0.0002205666646879998
0.0002142765180658996
0.0002082612443698415
0.0002024867704146895
0.0001969315953045088
0.0001915570076231243
0.0001863352396768781
0.0001812469070482136
0.0001762988232032734
0.0001714708860714747
0.0001668236480973335
0.0001622547248245277
0.0004664950968242115
0.0004650753393587286
0.0004614028791597223
0.0004557782638697725
0.000448792029685848
0.0004408258369871348
0.0004320703597467792
0.0004226617537288604
0.0004127442785241605
0.0004024509511555382
0.0003918921298043747
0.000381153228594767
0.000370312415593571
0.0003594411787585596
0.0003486103496993517
0.0003378826543189595
0.00032731826027332
0.0003169678397326819
0.0003068775678526657
0.0002970820394553378
0.0002876128277053093
0.0002784920696349068
0.0002697373265002167
0.0002613529352909137
0.000253338726022303
0.000245681731746957
0.0002383670158086061
0.0002313681845651727
0.000224662190418113
0.0002182166541773097
0.0002120093886954782
0.00020601372582374
0.0002002096059601535
0.0001945693653190294
0.0001890769996655395
0.0001837184447029135
0.0001785018734962155
0.0001734106860938443
0.0001685031714772798
0.0001636813929864343
0.0004531981402499249
0.0004520174391927887
0.0004489601185829135
0.0004442378056685124
0.0004382866056318745
0.0004313885658974251
0.0004237010825909122
0.0004153507213868099
0.0004064717500229787
0.0003971845540077992
0.0003875941468229964
0.0003777847077942414
0.000367834336578062
0.0003578112928147528
0.0003477825273759673
0.0003378059867037312
0.0003279372854109254
0.0003182225284047151
0.0003087042329065523
0.000299414719501651
0.0002903828686970572
0.0002816284673117464
0.0002731672542961448
0.0002650044420200786
0.0002571408005998313
0.0002495674611693116
0.0002422731214169994
0.0002352387397076769
0.0002284465259920294
0.0002218729183160408
0.0002154997929164033
0.0002093058817716277
0.0002032765998492125
0.0001973930735318735
0.000191647679663509
0.000186030402779348
0.0001805511795770049
0.0001751958325709857
0.0001700242936128672
0.0001649467563822674
0.0004415204955092306
0.0004405203339053309
0.000437929036336937
0.0004339037141644855
0.0004287798202464673
0.0004227672752310194
0.0004159906766470895
0.0004085597472359242
0.0004005964583961496
0.0003922082440150699
0.0003834927489557652
0.0003745289064383655
0.0003653924905580351
0.0003561474713600019
0.000346857065489168
0.0003375744022784967
0.0003283509640410936
0.0003192286442785535
0.0003102464419051907
0.0003014341765503654
0.000292818073874061
0.0002844161454608324
0.0002762422747836701
0.0002683020486280752
0.0002605968929528992
0.0002531208990529118
0.000245865677920853
0.0002388171331349776
0.0002319616690530049
0.0002252816181767724
0.0002187634410242513
0.0002123909923023157
0.0002061551265569912
0.0002000430827694853
0.0001940530679813408
0.0001881796243002186
0.0001824362918458332
0.0001768123288409893
0.0001713704869815149
0.0001660288538534216
0.0004312134913388563
0.0004303542953404484
0.0004281269283440358
0.0004246528230833594
0.0004201984720010859
0.0004149229679764278
0.0004089231821835954
0.0004022911276500044
0.0003951347692021021
0.0003875489274545181
0.0003796225212100005
0.0003714274774442969
0.0003630353210924531
0.0003545048561093017
0.0003458953550106076
0.0003372549195271828
0.000328631338377341
0.0003200624332337499
0.0003115834945488385
0.0003032221732662411
0.0002950013642701404
0.0002869381991748331
0.0002790440748506305
0.0002713253824587298
0.0002637830171456092
0.0002564135250463475
0.0002492101341081394
0.0002421625344121338
0.0002352599917783975
0.0002284895844319151
0.0002218414133168463
0.0002153040401259963
0.0002088724727652614
0.000202539429933377
0.0001963076570113521
0.0001901768516332281
0.0001841652582640372
0.0001782657034781958
0.0001725448740141094
0.0001669297109856523
0.0004220833812466477
0.0004213371726181458
0.0004194008097264198
0.000416371873176183
0.0004124670271161593
0.0004078099808523408
0.0004024747822713333
0.0003965383690069281
0.0003900928587601549
0.0003832225369570348
0.0003760056130526048
0.0003685082627069055
0.0003607945602295334
0.0003529198754096972
0.0003449373013894532
0.0003368916767885193
0.0003288254636367394
0.0003207738927123951
0.0003127681697175903
0.0003048332290735061
0.0002969894559107086
0.0002892518996812419
0.000281630443664388
0.0002741313820594477
0.00026675494341156
0.0002594990297113995
0.000252356845017228
0.0002453222212193076
0.0002383847348345387
0.0002315362668886105
0.0002247685565273327
0.0002180750915501911
0.0002114535213747876
0.0002049020008386346
0.0001984274385976119
0.000192033601483233
0.0001857448222246266
0.0001795577300950179
0.000173543471109877
0.0001676382962126987
0.0004139755457170537
0.0004133216222695369
0.0004116228147463414
0.0004089599082579254
0.000405512362386005
0.0004013786745778971
0.0003966147404996782
0.0003912850927063083
0.0003854670977775333
0.0003792349799698456
0.0003726562604851899
0.0003657912725319047
0.0003586966295646309
0.0003514236025436604
0.0003440192699336436
0.000336525304387842
0.0003289790275450214
0.0003214125543485563
0.0003138530425514368
0.000306323108923448
0.000298839832364382
0.0002914170641780769
0.0002840616899924649
0.0002767795877986177
0.000269571015604035
0.0002624335120654608
0.000255360178056472
0.000248347003993825
0.0002413842255509579
0.0002344660620791382
0.0002275857241195998
0.0002207403546500167
0.0002139303010656234
0.0002071574684538424
0.000200433880991706
0.0001937661540536558
0.000187185689699528
0.0001806933529732964
0.0001743655781577465
0.0001681488637101637
0.000406763914965316
0.0004061865009552548
0.0004046849839698687
0.0004023279813548171
0.0003992660320320182
0.0003955781375621468
0.0003913090549074554
0.0003865116798319127
0.0003812495593884941
0.0003755867902320968
0.0003695826302142777
0.0003632909968714831
0.0003567618791547623
0.0003500414297873645
0.0003431716616150516
0.0003361900540383607
0.000329129597972487
0.0003220187753917756
0.000314881488614219
0.0003077371757492473
0.0003006006140839764
0.0002934825282021464
0.000286389042887422
0.0002793232896668753
0.0002722841719998739
0.0002652693100911958
0.0002582708512506011
0.000251284546688297
0.0002443034095276682
0.0002373209674126267
0.0002303321520111683
0.0002233356051480957
0.0002163349691400362
0.0002093338293831048
0.0002023498475682026
0.0001953921892901167
0.0001884997778714984
0.0001816783673162175
0.0001750104698011487
0.0001684535711795236
0.0004003437828837074
0.0003998306674129703
0.0003984957826030592
0.0003963978558935796
0.0003936640905889994
0.0003903612921896281
0.0003865249044697966
0.0003821952000744612
0.0003774255395977973
0.0003722720819273353
0.0003667865773601329
0.000361016140650882
0.0003550046946842274
0.0003487931398796189
0.000342418717936117
0.0003359145991136561
0.0003293097913209084
0.000322629119509917
0.0003158931316913766
0.0003091181035139151
0.0003023160748600844
0.0002954950574979947
0.000288659181869169
0.0002818091389177067
0.0002749425034617311
0.0002680545928554682
0.0002611382840433667
0.0002541866460095709
0.0002471918386554891
0.0002401483313085518
0.0002330519835750176
0.0002259015497950098
0.0002187038852627003
0.0002114636443930444
0.0002042033814421136
0.0001969344041658907
0.000189703138601961
0.0001825212347391354
0.0001754791030047841
0.0001685457504874015
0.0003946269638139709
0.0003941687090586881
0.0003929765412997136
0.0003911002012403234
0.0003886502447555053
0.0003856834994630918
0.0003822253733818911
0.0003783082453734955
0.0003739778596546306
0.0003692825842872058
0.0003642669836214322
0.0003589719181508908
0.0003534357866400742
0.0003476944891557639
0.0003417807162699463
0.0003357234654391432
0.0003295478748899222
0.0003232751554833583
0.0003169225041972127
0.000310503064786349
0.0003040259552774421
0.0002974963968256687
0.0002909159212261971
0.0002842827118861099
0.0002775920641385421
0.0002708369811953312
0.0002640087957618616
0.0002570982628434757
0.000250096502839907
0.0002429962970031087
0.0002357926181191976
0.0002284847203178911
0.0002210792263160015
0.0002135836609232169
0.0002060257163351882
0.0001984188149109756
0.0001908157757698962
0.0001832341345132761
0.0001757740392832482
0.0001684177940905391
0.0003895381863988997
0.0003891274249915328
0.0003880587477259365
0.000386374685674325
0.0003841725925256057
0.0003814996900593496
0.0003783751313239677
0.0003748254149560864
0.0003708892045556384
0.0003666077993221196
0.0003620195219650315
0.0003571597141112261
0.0003520617250060096
0.000346756780703637
0.0003412732669704292
0.0003356362043205508
0.0003298670260014643
0.0003239834595284061
0.0003179994049092187
0.0003119248461841954
0.0003057658439118763
0.0002995246290372585
0.0002931997978546629
0.0002867866241773616
0.0002802775004099766
0.0002736625283707472
0.0002669302564455245
0.0002600686302636882
0.0002530661860318636
0.0002459131722305231
0.0002386029241911696
0.0002311333919815917
0.0002235095932684188
0.0002157404756963493
0.000207855601719291
0.0001998754561437475
0.0001918605499978128
0.0001838328080452898
0.0001759004926739341
0.0001680632191468321
0.0003850123900712027
0.000384643194289109
0.0003836825364013011
0.0003821671206961003
0.000380182751775134
0.0003777694468219563
0.0003749418254062604
0.0003717213032810375
0.0003681405203198404
0.0003642348050430182
0.0003600370692778056
0.000355577734257216
0.0003508855707539358
0.0003459875227837761
0.0003409079913868568
0.0003356682834939487
0.0003302863343234911
0.0003247765311327242
0.00031914954576904
0.0003134122022917094
0.0003075674239426241
0.0003016142780839004
0.0002955481284720815
0.0002893609084468649
0.0002830415341802062
0.0002765764724253273
0.0002699505163483042
0.0002631477225316634
0.0002561528177182296
0.0002489523854212194
0.0002415366362197891
0.0002338990721764666
0.0002260447324905252
0.0002179853275425718
0.0002097431242555948
0.000201347269218296
0.0001928676695593737
0.000184333019878974
0.0001758630313513546
0.000167474139834492
0.0003809926944221344
0.0003806602201288387
0.0003797949445823449
0.0003784287009852807
0.0003766374804944388
0.0003744555741153234
0.0003718941059504719
0.0003689703948005085
0.0003657120793081206
0.0003621493997681844
0.0003583105671618395
0.0003542216775919254
0.0003499074348606973
0.0003453909367056354
0.0003406929614377629
0.0003358313990327428
0.0003308209250472876
0.0003256727704693924
0.000320394504317914
0.0003149898463543232
0.000309458549072202
0.0003037963731418429
0.000297995180092868
0.0002920431535944127
0.0002859251732740505
0.0002796233419041181
0.0002731176903118751
0.0002663869687056085
0.0002594112256571769
0.0002521704353561995
0.0002446511132891375
0.0002368452204905055
0.0002287493145649703
0.0002203731567647919
0.0002117399814429435
0.0002028837712976818
0.0001938751494556394
0.000184760312858206
0.0001756720488550283
0.0001666428483460975
0.0003774288925007811
0.000377129144950266
0.0003763488419310824
0.0003751156860936167
0.0003734972923857022
0.0003715232822147752
0.0003692021122542411
0.0003665478380332123
0.0003635839389827311
0.0003603363429450269
0.0003568292368706613
0.0003530849795939039
0.000349124722466526
0.0003449681657582787
0.000340632853285715
0.0003361335906767619
0.0003314820796606041
0.0003266866325775764
0.000321751895788219
0.0003166785954219472
0.0003114633372317967
0.0003060984858435705
0.0003005721822112222
0.0002948684871832288
0.0002889676802597439
0.0002828467964962436
0.0002764806039454163
0.0002698391105031741
0.0002628985034972565
0.0002556330476532178
0.0002480186546328938
0.0002400398787935119
0.0002316895392477812
0.0002229730145831844
0.0002139117340338664
0.0002045430320494035
0.0001949340666093665
0.0001851519589252906
0.0001753448241424421
0.0001655656641486208
0.0003742762717891921
0.0003740059342926749
0.0003733019529571895
0.0003721884913956748
0.0003707259623756531
0.0003689401429814535
0.0003668374621196548
0.0003644293906315536
0.0003617359758280394
0.0003587795319873927
0.000355580849141667
0.0003521591078691035
0.0003485324124252162
0.0003447175245855008
0.0003407291690089677
0.0003365794406405681
0.0003322773976072254
0.0003278287209051883
0.000323235375149199
0.0003184952816475406
0.0003136020157700184
0.0003085445245247184
0.0003033070829473061
0.0002978693267347352
0.0002922063293983383
0.0002862888070067774
0.0002800844133258242
0.0002735612644550781
0.0002666800236523041
0.0002594064177620221
0.0002517086335961812
0.000243561341962861
0.0002349489437547199
0.0002258695075374103
0.0002163395424092672
0.0002063966339556161
0.0001961081277831043
0.0001855582150720476
0.0001749063044761463
0.0001642404834795626
0.0003714946847532189
0.0003712509814153899
0.0003706160655672304
0.0003696110457621476
0.0003682901010527269
0.0003666758222957076
0.0003647731149110918
0.0003625914299558457
0.0003601480133878246
0.0003574621887519446
0.0003545519249853031
0.0003514337556182033
0.0003481232358346176
0.000344634657757891
0.0003409803660583806
0.0003371701534995554
0.0003332108117408009
0.0003291057326723236
0.0003248545097995287
0.0003204525502762181
0.0003158906704141677
0.0003111544241253435
0.000306224167168893
0.0003010749714242765
0.0002956761329873558
0.0002899930899017104
0.00028398541967851
0.0002776093981751327
0.0002708178916699227
0.0002635645764582306
0.0002558053593340629
0.0002475016947622792
0.0002386251737289953
0.0002291626006261439
0.0002191219525187028
0.0002085373962104878
0.000197477641229964
0.0001860410931191254
0.000174392815964383
0.0001626711325476812
0.0003690478120917396
0.0003688283952534812
0.0003682563958943841
0.0003673502705132179
0.0003661587695558576
0.0003647018332344124
0.0003629832521193859
0.0003610109336135153
0.0003587998707791323
0.0003563669527580945
0.0003537278580192828
0.0003508969790963111
0.0003478878117063392
0.0003447126543090732
0.0003413819331895037
0.0003379035850613538
0.0003342825621242027
0.0003305203670916597
0.0003266145915960889
0.0003225585215600638
0.0003183408633855399
0.0003139436447769309
0.000309343397565404
0.0003045106143756601
0.0002994097789696269
0.0002939979325125222
0.0002882262220499881
0.0002820403471321181
0.0002753815902618268
0.0002681889795320698
0.0002604021248350453
0.0002519651391730782
0.0002428319735338529
0.0002329728249251926
0.0002223817189902137
0.0002110843776985524
0.0001991474513367917
0.0001866825337111153
0.0001738589653559494
0.0001608729153811386
0.0003669025757770924
0.0003667054364156275
0.0003661910797448947
0.0003653756568692593
0.0003643031564112298
0.0003629913175695297
0.0003614431544754632
0.0003596654357952254
0.0003576713821077771
0.0003554759475347756
0.0003530930102466372
0.0003505353036777931
0.000347814744892875
0.0003449421215017563
0.0003419264272982308
0.0003387742319598261
0.0003354891346676984
0.0003320712051445647
0.0003285163919856207
0.0003248161503280659
0.0003209592114508388
0.0003169226243486915
0.0003126799598413127
0.0003081976089354956
0.0003034339110240841
0.0002983387766104313
0.0002928539930079342
0.0002869134207955863
0.0002804438494355445
0.000273366884680773
0.0002656020003049188
0.0002570709022463197
0.0002477036044418518
0.0002374463510920246
0.0002262714061596024
0.0002141882041382951
0.0002012554750526404
0.0001875916220599269
0.0001733832766021395
0.0001588813688302207
0.0003650286770157267
0.0003648520697269192
0.0003643907620692364
0.0003636589337431454
0.0003626963127098564
0.0003615188603808197
0.0003601290931065593
0.0003585329850479269
0.0003567424081853114
0.0003547708321064398
0.0003526307880181473
0.0003503338091237257
0.0003478907050466062
0.0003453112407646316
0.0003426034871280244
0.0003397731853410873
0.000336823158172507
0.0003337526302929073
0.0003305562351158971
0.0003272216448928426
0.0003237466727916879
0.0003200956547827041
0.0003162423682231993
0.0003121496740530049
0.0003077703980539468
0.0003030471553317958
0.0002979118202700942
0.0002922852646221696
0.0002860778028676086
0.0002791906608416022
0.0002715187415860813
0.0002629551448730625
0.0002533979923759934
0.0002427599807944212
0.0002309808090758096
0.0002180424376260167
0.0002039857694603767
0.0001889292656438095
0.0001730761311032901
0.0001567369017534086
0.0003633982346587894
0.0003632406156414108
0.00036282828568044
0.0003621737949813142
0.0003613129361799859
0.0003602603393644826
0.0003590182418662509
0.0003575921125214039
0.0003559928519600879
0.0003542328525405794
0.0003523237174569755
0.000350276215061136
0.0003481005066918476
0.0003458058231344604
0.0003433998377334828
0.0003408880431891622
0.0003382731739260594
0.0003355546510983886
0.000332728139537063
0.0003297867056059635
0.0003267004170280068
0.0003234602685613718
0.0003200319248021384
0.0003163736736597007
0.000312433476313628
0.0003081469791984207
0.0003034361705179801
0.0002982083689099374
0.0002923558610957517
0.0002857565019759782
0.0002782757981496593
0.0002697711813891124
0.0002600992516028786
0.0002491268104935151
0.000236746203714272
0.000222895677191697
0.0002075823806893809
0.0001909124141091627
0.0001730985086549194
0.000154518244645099
0.0003619855122124766
0.0003618454923775379
0.0003614785161407882
0.0003608956280074581
0.0003601291903166701
0.0003591928143581286
0.0003580886195677162
0.0003568218217401968
0.0003554026893363221
0.0003538429056415135
0.0003521535312652898
0.0003503449801281758
0.0003484272078466304
0.0003464093920454137
0.0003442993330351842
0.0003421028436334699
0.0003398231598141551
0.0003374602771396273
0.0003350103587051963
0.0003324630167484955
0.0003298009902460295
0.0003270042057572784
0.0003240403407474915
0.0003208664039967512
0.0003174269877038939
0.0003136519539350025
0.0003094542293897413
0.0003047277717251269
0.0002993459609299841
0.0002931608123124078
0.0002860037554424666
0.0002776889110088823
0.0002680200062029835
0.0002568023582000459
0.000243861068171771
0.0002290673721913805
0.0002123699225668826
0.0001938409293706515
0.0001736868228496817
0.0001523577094700538
0.0003607667020335079
0.0003606430150352109
0.0003603180539484825
0.0003598014049138052
0.0003591226331422732
0.0003582944710694813
0.0003573190658703617
0.0003562016041327284
0.0003549520229213109
0.0003535816255719308
0.0003521012809413467
0.0003505214304850111
0.0003488522454975976
0.0003471033191819133
0.0003452831061904242
0.0003433983413060141
0.0003414534468771029
0.000339449848173122
0.0003373839804361092
0.0003352489222722216
0.0003330304343442139
0.0003307074724708286
0.0003282491759935685
0.0003256129080760997
0.0003227418574963235
0.0003195621145846877
0.000315979413783324
0.0003118756996350133
0.0003071057829206726
0.0003014945530671902
0.0002948354984712645
0.0002868917956200036
0.000277401590863758
0.0002660897228967444
0.0002526879643618425
0.000236967770700686
0.000218781669311817
0.0001981318279183113
0.0001751873578862753
0.0001504692833448296
0.0003597197608186768
0.0003596112095405645
0.0003593250871480296
0.0003588696536152375
0.0003582721440904735
0.0003575445863612109
0.0003566892481518738
0.0003557114845815132
0.0003546211641825796
0.0003534294984973663
0.000352147478425709
0.0003507859236734907
0.0003493556129840838
0.0003478670066438589
0.0003463297408018083
0.0003447521113575063
0.0003431403456750777
0.0003414971275261422
0.000339823268357708
0.0003381141400724921
0.0003363588359435918
0.0003345392389007863
0.0003326276211715508
0.0003305839418312528
0.0003283527582838987
0.0003258594751955318
0.0003230058467303978
0.0003196648379204443
0.000315675016146522
0.0003108348682287381
0.0003048979361133185
0.0002975700392134091
0.0002885107552826809
0.0002773425078399334
0.0002636706751427071
0.0002471219057626485
0.0002273965167125694
0.0002043673961578325
0.0001781084600149179
0.0001491937900010793
0.000358824306428441
0.0003587297376366178
0.0003584793742217533
0.0003580803161908245
0.0003575578865693643
0.0003569235290931409
0.0003561796999274934
0.000355332098346313
0.0003543907511935454
0.0003533670204205874
0.0003522722881780034
0.0003511180663524655
0.0003499161067270434
0.0003486781552893312
0.0003474155566440499
0.0003461385177431141
0.0003448550729276126
0.000343572702962699
0.0003422951314121252
0.0003410217481034963
0.0003397466772407938
0.0003384570999850282
0.0003371308443506062
0.0003357334446911193
0.0003342144965354269
0.0003325030372094262
0.00033050173343614
0.0003280798190538804
0.0003250647347316545
0.0003212326590404963
0.0003162986442095034
0.0003099078656727226
0.0003016301972626848
0.0002909625305839597
0.00027734408985609
0.0002601968485829686
0.000238987109512052
0.0002133634048663623
0.00018320071538358
0.000149075045702211
0.0003580615624715331
0.0003579798429137839
0.0003577621823421218
0.0003574147335303107
0.0003569613010785271
0.0003564127861522483
0.0003557718819286359
0.00035504478861484
0.0003542418806476347
0.0003533748700168625
0.0003524557441973918
0.0003514969721966546
0.0003505115914110249
0.0003495130784771576
0.0003485145641940806
0.0003475283291892447
0.0003465671821788122
0.000345641732803007
0.000344760146291911
0.0003439275515843774
0.0003431447418857883
0.0003424063821906393
0.0003416986817437699
0.0003409963496562334
0.0003402585602619576
0.000339423613939558
0.0003384019151392703
0.0003370669525774562
0.0003352438798292361
0.0003326954755937599
0.0003291057315046637
0.0003240621272718079
0.0003170390708524593
0.0003073875255600797
0.0002943369808311058
0.0002770292644513158
0.0002545809305392625
0.0002262669226909415
0.000191579449348148
0.0001509747600841479
0.0003574143238740807
0.0003573443160790586
0.0003571562649455809
0.0003568556635023635
0.000356465157887681
0.0003559950455203287
0.0003554483045733918
0.0003548317800862042
0.0003541563420206948
0.0003534341985358519