/*--------------------------------*- C++ -*----------------------------------*\
| =========                 |                                                 |
| \\      /  F ield         | OpenFOAM: The Open Source CFD Toolbox           |
|  \\    /   O peration     | Version:  2206                                  |
|   \\  /    A nd           | Website:  www.openfoam.com                      |
|    \\/     M anipulation  |                                                 |
\*---------------------------------------------------------------------------*/
FoamFile
{
    version     2.0;
    format      ascii;
    arch        "LSB;label=32;scalar=64";
    class       surfaceScalarField;
    location    "1";
    object      phi;
}
// * * * * * * * * * * * * * * * * * * * * * * * * * * * * * * * * * * * * * //

dimensions      [0 3 -1 0 0 0 0];

oriented        oriented;

internalField   nonuniform List<scalar> 
35915
(
4.183873181021612e-05
8.646688844305474e-07
4.050742345209584e-05
1.331307897863614e-06
3.908432667861179e-05
1.423096012760629e-06
3.760975849719254e-05
1.474567125236891e-06
3.608273237881698e-05
1.527024772201687e-06
3.452680554249007e-05
1.555925206113055e-06
3.29606297571255e-05
1.566173877379799e-06
3.139926051435203e-05
1.561367063510528e-06
2.985253320601208e-05
1.546724864572708e-06
2.83274701878334e-05
1.525060316566591e-06
2.68279882203237e-05
1.499479014831177e-06
2.535348451464975e-05
1.474500508525752e-06
2.391216397895479e-05
1.441317100439201e-06
2.252317027983034e-05
1.388990031773817e-06
2.120048692177761e-05
1.322679464134705e-06
1.995186354895086e-05
1.248619257314531e-06
1.87829687838957e-05
1.168890432159466e-06
1.769871487572606e-05
1.08424936136548e-06
1.670300271990298e-05
9.957073976549164e-07
1.579882042560045e-05
9.041773262455511e-07
1.498773728503053e-05
8.110779630032513e-07
1.426641833195966e-05
7.213135651922355e-07
1.362932277350457e-05
6.370899581561566e-07
1.307105757584263e-05
5.582593815414255e-07
1.258639341148923e-05
4.846581275649691e-07
1.216843946617381e-05
4.179476816313385e-07
1.181024674141378e-05
3.581862264582803e-07
1.150466365200214e-05
3.055763474053603e-07
1.124496347364194e-05
2.596931820998217e-07
1.102443763311369e-05
2.20518578142845e-07
1.083723927449043e-05
1.871908169497829e-07
1.067755199021864e-05
1.596794490692551e-07
1.054054320226026e-05
1.370006439280031e-07
1.042148619567067e-05
1.19048537661461e-07
1.031703598436196e-05
1.044414007322619e-07
1.02238851667063e-05
9.314164831326154e-08
1.013958514702988e-05
8.429047433452218e-08
1.006208621421638e-05
7.748899529754282e-08
9.986608877226694e-06
7.546699074611964e-08
7.725470580412078e-08
9.909343448373805e-06
4.306956257625858e-05
4.985070047393403e-07
4.33874825630459e-05
1.013387457140069e-06
4.352923998659974e-05
1.281337839372964e-06
4.355622379771569e-05
1.44758227355021e-06
4.350824842172972e-05
1.574998822536574e-06
4.338136746292606e-05
1.682804560287153e-06
4.318427192972087e-05
1.763267533381748e-06
4.292437800385625e-05
1.821258846332112e-06
4.261146191785586e-05
1.859638548431719e-06
4.224985249400983e-05
1.88666708617581e-06
4.184405103452552e-05
1.905277574890181e-06
4.140401848998399e-05
1.914529915112889e-06
4.093230110495562e-05
1.913031115583793e-06
4.042917949619625e-05
1.892108044893145e-06
3.989343275671726e-05
1.858422387898269e-06
3.93311886266854e-05
1.810859356617293e-06
3.874841578730068e-05
1.751659030336288e-06
3.815135831583338e-05
1.681302384712077e-06
3.754519082433539e-05
1.601870236816114e-06
3.693386332413251e-05
1.515499971581507e-06
3.632130756443853e-05
1.423628665912857e-06
3.571342385347309e-05
1.329192016809907e-06
3.511636806786307e-05
1.234140279991579e-06
3.453498337517958e-05
1.13963840275808e-06
3.397196593140229e-05
1.047669687633104e-06
3.342873100113894e-05
9.611765098316331e-07
3.290699265465651e-05
8.799182451586699e-07
3.240778556298699e-05
8.04776876607051e-07
3.193197960343279e-05
7.354923342605835e-07
3.147967700991066e-05
6.728141076459071e-07
3.105108612378766e-05
6.157743695560288e-07
3.064546733755578e-05
5.652906180501322e-07
3.02623196314964e-05
5.201404339353252e-07
2.989997075517298e-05
4.81389182999287e-07
2.95578900984162e-05
4.465134949544452e-07
2.923397752149139e-05
4.170453139313469e-07
2.892770120778464e-05
3.905575104235172e-07
2.863642437096357e-05
3.687561716052179e-07
2.83626806500176e-05
3.492006527175241e-07
3.360743753520507e-07
2.810385055117638e-05
4.291281082615724e-05
2.890968778297588e-07
4.320319165968254e-05
7.230061772806147e-07
4.347765495373993e-05
1.006873808290343e-06
4.371406553857584e-05
1.211170666352087e-06
4.392157899597146e-05
1.367484063367006e-06
4.410122921188973e-05
1.503152769445783e-06
4.425968709689072e-05
1.604807806945979e-06
4.439593565530755e-05
1.685008186746357e-06
4.450007452245831e-05
1.755497327492811e-06
4.45759671631374e-05
1.810771846215859e-06
4.462782340281654e-05
1.853418497522478e-06
4.465881783390167e-05
1.883532414941077e-06
4.46682895009991e-05
1.903556154736338e-06
4.465431386533931e-05
1.90608016846965e-06
4.461644026147192e-05
1.896292267307231e-06
4.455357847501738e-05
1.873717211615516e-06
4.44673900821414e-05
1.83784328932335e-06
4.43611289434284e-05
1.787559191008202e-06
4.423550943292785e-05
1.72748521924754e-06
4.409124325795611e-05
1.659761424810094e-06
4.392883230893873e-05
1.58603470027814e-06
4.374929810367234e-05
1.508721114172901e-06
4.355447038043843e-05
1.428962700388919e-06
4.334651920209558e-05
1.347584080338898e-06
4.312748793499078e-05
1.266695251648286e-06
4.290001351188527e-05
1.188645021776785e-06
4.26662126017463e-05
1.113713028753635e-06
4.242857576560584e-05
1.042407362108449e-06
4.218872922488573e-05
9.753322901437144e-07
4.19480778730814e-05
9.134586288385604e-07
4.170755351386757e-05
8.562916394802828e-07
4.146853823538754e-05
8.042985344862639e-07
4.123225642012309e-05
7.56414599065672e-07
4.099989622253015e-05
7.137414262239374e-07
4.077137426419405e-05
6.750271776099919e-07
4.054719351879063e-05
6.412174446500504e-07
4.032794344372238e-05
6.097986136840995e-07
4.011300237451382e-05
5.836878946123774e-07
3.990581245902868e-05
5.563808294477376e-07
5.336394149019095e-07
3.970823731728275e-05
4.280210501140417e-05
1.903925682775795e-07
4.298366916968932e-05
5.414415812082459e-07
4.318288004776706e-05
8.076622077388376e-07
4.338456440115769e-05
1.009485311338646e-06
4.358267414956311e-05
1.169373040264097e-06
4.378191842092242e-05
1.303906956778223e-06
4.397104646471276e-05
1.415677962078134e-06
4.415059526596256e-05
1.505457331798986e-06
4.432433616168462e-05
1.581754132701632e-06
4.449064644458098e-05
1.644459026239491e-06
4.464815592802503e-05
1.695906246380644e-06
4.479785221651406e-05
1.733833135328755e-06
4.494084208017494e-05
1.760563083528958e-06
4.507404858416802e-05
1.772870247119683e-06
4.51982448758768e-05
1.772092354718148e-06
4.531416903543864e-05
1.757789233203301e-06
4.542026433977587e-05
1.731743973122689e-06
4.550865237807058e-05
1.699166951967046e-06
4.557854559391871e-05
1.657587616945809e-06
4.563096426342603e-05
1.607338185347478e-06
4.566700821786564e-05
1.549985993478291e-06
4.568760396641747e-05
1.488120430697933e-06
4.569461283799199e-05
1.421948709926057e-06
4.568791617204995e-05
1.354275440732867e-06
4.566936333634033e-05
1.285242590972583e-06
4.563951668634042e-05
1.218485978966636e-06
4.559979786008569e-05
1.153425958692407e-06
4.555263980021326e-05
1.089559313576582e-06
4.54990362559384e-05
1.028929503898111e-06
4.543998369988668e-05
9.725046207562285e-07
4.53761423667507e-05
9.201261619472394e-07
4.530788484006493e-05
8.725489896758628e-07
4.523634657232127e-05
8.27945519021121e-07
4.51625074063921e-05
7.875729514092363e-07
4.50867791561649e-05
7.507474764785826e-07
4.50096051190697e-05
7.183832012881404e-07
4.493147777724634e-05
6.87917326778911e-07
4.485327774664763e-05
6.618789289966166e-07
4.477367938691527e-05
6.359698078571052e-07
6.149264511997301e-07
4.469238260697508e-05
4.274955342341192e-05
1.442398502215736e-07
4.286630134177422e-05
4.24693234704928e-07
4.301349575796101e-05
6.604670851648281e-07
4.317231499227518e-05
8.506650982288853e-07
4.333506004085992e-05
1.006626746773578e-06
4.35014499855958e-05
1.13751550768641e-06
4.366840301590184e-05
1.248723175056053e-06
4.383351349676163e-05
1.340344849290798e-06
4.399827167381445e-05
1.416993716576187e-06
4.416260817358428e-05
1.480120057678524e-06
4.432706232752802e-05
1.531449401478328e-06
4.449046403975646e-05
1.570428517603648e-06
4.465310317118596e-05
1.59792083938943e-06
4.481224866800501e-05
1.613721437363098e-06
4.496556628573577e-05
1.618771230307393e-06
4.511055641852528e-05
1.61279540591243e-06
4.524623696471075e-05
1.596059549915481e-06
4.537425304791863e-05
1.571146813646925e-06
4.549311225726448e-05
1.538724177920278e-06
4.560129970322852e-05
1.499146337635355e-06
4.5698518618323e-05
1.452762505995626e-06
4.578491184126481e-05
1.401722464911681e-06
4.586045553808518e-05
1.346400098713497e-06
4.592577798901227e-05
1.288947901329125e-06
4.598159572504306e-05
1.229419588512291e-06
4.60300760241367e-05
1.170000230066075e-06
4.607187690552747e-05
1.111619437285263e-06
4.610578865745596e-05
1.055641723033176e-06
4.613155019224591e-05
1.003161921901397e-06
4.615164125138098e-05
9.524072943295434e-07
4.616634107862335e-05
9.054198343026101e-07
4.617683467257509e-05
8.620486477230493e-07
4.618470907436247e-05
8.200641057105648e-07
4.619035962518284e-05
7.819151083295516e-07
4.619377543557587e-05
7.473240746403821e-07
4.619530802886115e-05
7.168426977284228e-07
4.619503079392599e-05
6.881863120354871e-07
4.619304319387646e-05
6.638579195810156e-07
4.618892239795927e-05
6.400816117968905e-07
6.202273386384869e-07
4.618361216039739e-05
4.273255059556534e-05
1.150899630831004e-07
4.281338131724187e-05
3.438620951281027e-07
4.292459018105183e-05
5.492575323677242e-07
4.30513525501568e-05
7.239017749720755e-07
4.318661765163601e-05
8.713604324534186e-07
4.332728970227566e-05
9.968419925361791e-07
4.347157984722628e-05
1.10443132127686e-06
4.361686451283927e-05
1.195058238153035e-06
4.376286933823686e-05
1.270986716861684e-06
4.390927360708731e-05
1.333713393686217e-06
4.405616770225687e-05
1.384552698353167e-06
4.420277718951696e-05
1.423816217480248e-06
4.434864978919242e-05
1.452045229637844e-06
4.449285989560433e-05
1.469508130952192e-06
4.463487972521459e-05
1.476748017746523e-06
4.477348250773656e-05
1.474189063771421e-06
4.490722530217151e-05
1.462313024838172e-06
4.503594361197261e-05
1.442424607007049e-06
4.515919082178827e-05
1.415472908984576e-06
4.527623239633979e-05
1.382100544533719e-06
4.5386181378116e-05
1.342809147990886e-06
4.548889450235372e-05
1.299004807300633e-06
4.55837787887852e-05
1.251511120926625e-06
4.567121962676039e-05
1.201502211909249e-06
4.575052270190302e-05
1.150111498179489e-06
4.582211393660675e-05
1.098403811352967e-06
4.588658599123332e-05
1.047142023109456e-06
4.594523974337016e-05
9.969824275846533e-07
4.599901496090036e-05
9.493809673788153e-07
4.604813585873763e-05
9.032804543098507e-07
4.609364402139989e-05
8.599055112000453e-07
4.613610393390953e-05
8.195823417590818e-07
4.617393058626464e-05
7.822308105572481e-07
4.62075245749328e-05
7.483142096027809e-07
4.623874769805645e-05
7.160937547787918e-07
4.626825934641892e-05
6.87323545101251e-07
4.629619504933139e-05
6.60242774971831e-07
4.632384402029765e-05
6.362007613953006e-07
4.635045253137021e-05
6.134645383196416e-07
5.948360202373334e-07
4.637583492769395e-05
4.272288506594334e-05
9.560560965236467e-08
4.27798231525809e-05
2.869236016770057e-07
4.286415996749428e-05
4.649200470054505e-07
4.296583408171776e-05
6.222267328372976e-07
4.307852544088833e-05
7.586678946500996e-07
4.31987238575985e-05
8.766421536602397e-07
4.332429197170804e-05
9.788615492087983e-07
4.345309589467433e-05
1.066252429391185e-06
4.358395339300586e-05
1.140127113072951e-06
4.371615302617695e-05
1.201511443809977e-06
4.384916900439547e-05
1.251534200559896e-06
4.398233271633701e-05
1.29064979134097e-06
4.411495848259193e-05
1.319416562654583e-06
4.424629119053539e-05
1.338172343616382e-06
4.437560023751648e-05
1.347435719966447e-06
4.45020792998078e-05
1.347706586030153e-06
4.462482565523685e-05
1.339563095370002e-06
4.474333585884643e-05
1.32391067602432e-06
4.485731678766833e-05
1.301488103780515e-06
4.496629634289039e-05
1.273116967182427e-06
4.506982375417404e-05
1.239277570984183e-06
4.516764091016548e-05
1.201183342832446e-06
4.52596812524062e-05
1.159466327119846e-06
4.534573371008454e-05
1.115445157741368e-06
4.542615814370769e-05
1.069682319801422e-06
4.550105330754919e-05
1.023503749731493e-06
4.557104438201125e-05
9.771458913798242e-07
4.563612525710256e-05
9.31896327682007e-07
4.569763762858721e-05
8.878631937816624e-07
4.575500964411167e-05
8.459028479664412e-07
4.580942710944805e-05
8.054822531318636e-07
4.586104861842301e-05
7.679548231466679e-07
4.591095728434147e-05
7.32315901319795e-07
4.595879532941063e-05
7.004696689991109e-07
4.600474100969982e-05
6.70141306373315e-07
4.604882299719013e-05
6.432344946204194e-07
4.609145520794877e-05
6.176031822713087e-07
4.61323102021687e-05
5.953380413975323e-07
4.617205046137962e-05
5.737161806354222e-07
5.553037784054061e-07
4.621157424975331e-05
4.271769902557075e-05
8.130730005277783e-08
4.27604540706159e-05
2.441681613360607e-07
4.282668539880707e-05
3.986880677794441e-07
4.290983711092953e-05
5.390741203287427e-07
4.300477593804445e-05
6.637279247437733e-07
4.310820915581955e-05
7.732075582469185e-07
4.321794758768049e-05
8.69121512784556e-07
4.333214720271999e-05
9.520509911825955e-07
4.344938820454109e-05
1.022884078136974e-06
4.356870233347753e-05
1.082195080529888e-06
4.368931769891864e-05
1.130916408365749e-06
4.381052805976373e-05
1.169436820099093e-06
4.393159875306104e-05
1.198343083841324e-06
4.405181961764546e-05
1.217948526637843e-06
4.417046390858973e-05
1.228788317526229e-06
4.428683589838091e-05
1.231331332905414e-06
4.440026187923142e-05
1.226133705863989e-06
4.45102453172955e-05
1.213923689613828e-06
4.461643118094089e-05
1.195298556954507e-06
4.471841987313694e-05
1.171124460659415e-06
4.48158505692253e-05
1.141842932036476e-06
4.490844971936688e-05
1.108580122656235e-06
4.499614646583297e-05
1.071765383369344e-06
4.507887133297857e-05
1.032715964638335e-06
4.515685767189831e-05
9.916915233706043e-07
4.523023330607371e-05
9.501235219917233e-07
4.529939036129184e-05
9.079841004732665e-07
4.536453530893745e-05
8.667464943779027e-07
4.542635975135164e-05
8.260337062855607e-07
4.54849834718943e-05
7.87273911576967e-07
4.554094612653199e-05
7.495141986819062e-07
4.559442293108482e-05
7.144724197887487e-07
4.564587432283366e-05
6.808586947050876e-07
4.569572734052513e-05
6.50610601187707e-07
4.574412458343573e-05
6.217377568086317e-07
4.579122501541872e-05
5.961274759388336e-07
4.583710614040468e-05
5.717151645637714e-07
4.588185532859184e-05
5.505816263362071e-07
4.592534760048222e-05
5.302163199079902e-07
5.129819556861125e-07
4.596766147887671e-05
4.271458986592653e-05
7.011815455777326e-08
4.274810293849869e-05
2.106547055722686e-07
4.28012522442362e-05
3.455381311732314e-07
4.286990533984041e-05
4.704201528550466e-07
4.295024122282694e-05
5.833909361021985e-07
4.303945202679304e-05
6.839954226517584e-07
4.313550469167187e-05
7.730672986429783e-07
4.323673573129181e-05
8.508181933841553e-07
4.334174310134572e-05
9.178747500002016e-07
4.344945230353334e-05
9.744837295179269e-07
4.355898149248146e-05
1.021384889116944e-06
4.366956616542883e-05
1.058849644604723e-06
4.378045876036347e-05
1.087447823130324e-06
4.389096380003926e-05
1.107440666728041e-06
4.400040201263755e-05
1.119347138500677e-06
4.410815274907601e-05
1.12357749159951e-06
4.421363501529626e-05
1.120648203373853e-06
4.431636972475804e-05
1.111185618714017e-06
4.441596391900572e-05
1.095700881356865e-06
4.451207332222818e-05
1.075011460394107e-06
4.46043978213392e-05
1.049514723265524e-06
4.469272752902861e-05
1.020246594437399e-06
4.477696400994087e-05
9.875249715579786e-07
4.485707915180765e-05
9.525967805133466e-07
4.4933172816779e-05
9.155937022436515e-07
4.500538254150733e-05
8.779095231473127e-07
4.507396685979009e-05
8.393953844149913e-07
4.513918395114886e-05
8.015248742614769e-07
4.520141140453884e-05
7.638015839433086e-07
4.526092393526312e-05
7.277565606285684e-07
4.531798092395998e-05
6.924522256089813e-07
4.537286057962266e-05
6.595876005382771e-07
4.542581072003015e-05
6.279031942446117e-07
4.547722553281379e-05
5.991902124726377e-07
4.552718964883371e-05
5.717678269831016e-07
4.557589765511036e-05
5.47413393287487e-07
4.562332289145014e-05
5.242835617334203e-07
4.56695967228178e-05
5.043011088033506e-07
4.571451023002071e-05
4.852957711690817e-07
4.692670118549856e-07
4.575821778614633e-05
4.271246337754663e-05
6.105550105032647e-08
4.273958310163594e-05
1.835346104924559e-07
4.278320728346619e-05
3.019133391216715e-07
4.284071395463311e-05
4.129126390181416e-07
4.290934434420635e-05
5.147594789255079e-07
4.298679612083406e-05
6.065423616333538e-07
4.307126630036626e-05
6.885956265689685e-07
4.316125038227601e-05
7.608324198684418e-07
4.325544925114144e-05
8.236739999670142e-07
4.335278313563988e-05
8.771477838760066e-07
4.345234450769879e-05
9.21821285766763e-07
4.355334537491656e-05
9.578463856648976e-07
4.365505412523102e-05
9.857365302141205e-07
4.375679992707259e-05
1.005692180671729e-06
4.385795082882022e-05
1.018193419768706e-06
4.395793713053395e-05
1.02358824842222e-06
4.405623353425428e-05
1.022348741248685e-06
4.415239757228332e-05
1.015018412127083e-06
4.424604966681233e-05
1.002045513897192e-06
4.433688710481919e-05
9.841706498854893e-07
4.442464492394784e-05
9.617534355721034e-07
4.450914807043811e-05
9.357398856263876e-07
4.459028197961856e-05
9.063874072621764e-07
4.466802968626714e-05
8.74845325408509e-07
4.474242963578055e-05
8.411899090083124e-07
4.481361268777473e-05
8.067225285818292e-07
4.488174083052796e-05
7.712631950366946e-07
4.494704424954121e-05
7.362172976762169e-07
4.500974509958078e-05
7.0109645669521e-07
4.5070111204162e-05
6.67386048701883e-07
4.512831134876606e-05
6.342475309685579e-07
4.518462478785536e-05
6.032694540414788e-07
4.523920135291802e-05
5.733217474681878e-07
4.52923297602375e-05
5.460567296137802e-07
4.534404678496244e-05
5.200455105379612e-07
4.539451738541519e-05
4.969372595930164e-07
4.544367823968337e-05
4.751169037425578e-07
4.549164507678549e-05
4.563281648419338e-07
4.5538238594719e-05
4.386958098417548e-07
4.238372217824491e-07
4.558366160056666e-05
4.271092872314424e-05
5.352750669767656e-08
4.27334392042375e-05
1.610237709813715e-07
4.276996684738108e-05
2.65385106690519e-07
4.281877965462079e-05
3.640990187080855e-07
4.287790027833057e-05
4.556378261169102e-07
4.294549094754313e-05
5.389504557647432e-07
4.302002227407737e-05
6.14062864928124e-07
4.310015979178122e-05
6.806932780752826e-07
4.318474276990696e-05
7.390892186329877e-07
4.327274406513434e-05
7.891445165323035e-07
4.336328975731069e-05
8.312734628087667e-07
4.345560016050369e-05
8.655337032626739e-07
4.35489770953834e-05
8.92357177896167e-07
4.364277750024478e-05
9.118892299356568e-07
4.373641372040663e-05
9.245545347451643e-07
4.382935646605108e-05
9.306427277853522e-07
4.392112661473733e-05
9.305757155429182e-07
4.401131938539521e-05
9.248226697886679e-07
4.409958025150373e-05
9.137815877825034e-07
4.418563507069544e-05
8.981126876289941e-07
4.426924103832012e-05
8.781442459271463e-07
4.435024678699377e-05
8.547308388240956e-07
4.442853277926305e-05
8.280980422006775e-07
4.450408593591886e-05
7.992887213793533e-07
4.457690867222296e-05
7.683636492670405e-07
4.464711159991388e-05
7.365159984224138e-07
4.471478893404213e-05
7.035821748217727e-07
4.478013482233417e-05
6.708676334665593e-07
4.484328669978127e-05
6.379407055483015e-07
4.490447679102778e-05
6.061919761328137e-07
4.496381879317123e-05
5.749014280613458e-07
4.502154557229456e-05
5.455384407907139e-07
4.50777358146166e-05
5.17127121323286e-07
4.513260068084799e-05
4.911873107686422e-07
4.518613934889598e-05
4.665020990438392e-07
4.523848600352622e-05
4.445856450314455e-07
4.528954860711128e-05
4.240490941933045e-07
4.533941671839117e-05
4.064545685183638e-07
4.538788909300705e-05
3.902176296173348e-07
3.766116526810369e-07
4.543510853503646e-05
4.270977537899877e-05
4.715286003865365e-08
4.272881912785955e-05
1.419796760147081e-07
4.275989885056753e-05
2.343048155526251e-07
4.280181734385811e-05
3.221797418843973e-07
4.28531596674793e-05
4.042945119177413e-07
4.291247304350477e-05
4.79635890848135e-07
4.297850083579876e-05
5.480336949345104e-07
4.305007048913727e-05
6.091220681885959e-07
4.312617149401358e-05
6.629864887519807e-07
4.320584727588602e-05
7.094668518106234e-07
4.328829395350825e-05
7.488247553065883e-07
4.33727559228326e-05
7.810695679112514e-07
4.3458584313369e-05
8.065264958322227e-07
4.354516441665876e-05
8.253067200570263e-07
4.363195720495503e-05
8.377592348537116e-07
4.371846934574782e-05
8.441279798089925e-07
4.380426541545151e-05
8.447769518428463e-07
4.388897459044687e-05
8.401107218762746e-07
4.397226952995498e-05
8.304838033164949e-07
4.405390464715512e-05
8.164746592608852e-07
4.413365515894617e-05
7.983907614118716e-07
4.421139226317941e-05
7.769907036967668e-07
4.42869950470425e-05
7.524921712593888e-07
4.436045308875686e-05
7.258275370234919e-07
4.443174358029002e-05
6.970699587662087e-07
4.450095879183227e-05
6.672975292029548e-07
4.456814847869921e-05
6.363891677472269e-07
4.463347444451639e-05
6.055382794444818e-07
4.46970192176146e-05
5.743924692155516e-07
4.47589739560603e-05
5.442336906319723e-07
4.48194061665735e-05
5.144655759907738e-07
4.487849861066257e-05
4.86442247847144e-07
4.493628040651466e-05
4.593414541278905e-07
4.499290540516178e-05
4.345583004398926e-07
4.504833335643812e-05
4.110699745654682e-07
4.510265752334746e-05
3.902571184191459e-07
4.515575239239627e-05
3.709496494136865e-07
4.52076671620295e-05
3.545349722529972e-07
4.525817879912258e-05
3.397008778109e-07
3.273737626886294e-07
4.530741127026151e-05
4.27088775440846e-05
4.167605304740807e-08
4.272522740236005e-05
1.256294840490545e-07
4.275201904008642e-05
2.075126300420025e-07
4.278839159824932e-05
2.858064293677282e-07
4.283332179524549e-05
3.593633622886785e-07
4.288565990842791e-05
4.272966360191862e-07
4.29443889993823e-05
4.893032831048511e-07
4.300849080925046e-05
5.45018768602283e-07
4.307710099928816e-05
5.943746510626868e-07
4.31493455839546e-05
6.37220472740379e-07
4.322450501135291e-05
6.736633981292357e-07
4.330186292795394e-05
7.037095975736737e-07
4.338082851673454e-05
7.275587406940465e-07
4.346082032886962e-05
7.453126399570654e-07
4.354134889316445e-05
7.572283116169664e-07
4.362195824695943e-05
7.635161861568175e-07
4.370224837065671e-05
7.644843167190956e-07
4.378189203155342e-05
7.604644864527447e-07
4.386058105405048e-05
7.51792150639586e-07
4.393810827907609e-05
7.389447548282338e-07
4.401425260600969e-05
7.222437110237018e-07
4.408891822502218e-05
7.023223210241834e-07
4.416197282485573e-05
6.794347701812647e-07
4.423342165723405e-05
6.543758670037868e-07
4.430321750810625e-05
6.272712336041704e-07
4.43714461730184e-05
5.990659517809499e-07
4.443812060558889e-05
5.69711781463502e-07
4.450338365717899e-05
5.402722284444391e-07
4.4567270700344e-05
5.105023750515293e-07
4.462994547543287e-05
4.815558054663357e-07
4.469142789523722e-05
4.52979977881207e-07
4.475186727362025e-05
4.25999611864423e-07
4.481124223621962e-05
3.999631413055714e-07
4.486966458736192e-05
3.761324904300906e-07
4.492705118762369e-05
3.536797875473356e-07
4.498344812839508e-05
3.338564396525014e-07
4.503869517468285e-05
3.156986857158801e-07
4.509279632021681e-05
3.004296967719139e-07
4.514549310734523e-05
2.869997042133141e-07
2.76007263854518e-07
4.519685495143204e-05
4.270815836200414e-05
3.69184315361451e-08
4.272236384572461e-05
1.114236785006091e-07
4.274570308208484e-05
1.841728659283994e-07
4.27775482462448e-05
2.539605392063914e-07
4.281713513241442e-05
3.197755605725666e-07
4.28635603241869e-05
3.808703485952175e-07
4.291599376699542e-05
4.368685748563793e-07
4.297357824857153e-05
4.874328626114692e-07
4.30355648601216e-05
5.323864675437375e-07
4.310118651750873e-05
5.715971075758386e-07
4.316979201705147e-05
6.050560669466027e-07
4.324072739818658e-05
6.32772272987873e-07
4.331345277455026e-05
6.548313209549245e-07
4.338742918463687e-05
6.713340982846879e-07
4.346221413441227e-05
6.82441153216094e-07
4.353738917863572e-05
6.883388669647194e-07
4.36126017601057e-05
6.892694038723518e-07
4.368755139023668e-05
6.855124775891585e-07
4.376195623842323e-05
6.773848843844991e-07
4.383564210561597e-05
6.652564371277357e-07
4.390838950214753e-05
6.494938371884861e-07
4.398014866255983e-05
6.305606609745338e-07
4.405075481107752e-05
6.08826102741968e-07
4.412026223575123e-05
5.84865905821201e-07
4.418857692056487e-05
5.589539952126092e-07
4.425581928502701e-05
5.318210157208204e-07
4.432194779513016e-05
5.035806796282674e-07
4.438711424671129e-05
4.751031616537925e-07
4.445130109773589e-05
4.46312880783578e-07
4.45146648106413e-05
4.181894154933642e-07
4.457717553186332e-05
3.904665385902322e-07
4.463896281397439e-05
3.642095619138042e-07
4.46999558743608e-05
3.389672526533418e-07
4.476023248383524e-05
3.158529791674268e-07
4.481966085571866e-05
2.942484240515355e-07
4.48782443896919e-05
2.752698039981209e-07
4.49357841853199e-05
2.581556527447038e-07
4.499223091409076e-05
2.439795627020364e-07
4.504728785258425e-05
2.319391563145693e-07
2.22314495967004e-07
4.510097677930768e-05
4.270757147744105e-05
3.274769911513114e-08
4.272003249939454e-05
9.89623462798e-08
4.274053963538012e-05
1.636652214679955e-07
4.27686318785927e-05
2.258675972580427e-07
4.280372215818228e-05
2.846844009516294e-07
4.28451034661287e-05
3.394879892470933e-07
4.289208289617232e-05
3.898879326803687e-07
4.294396673848474e-05
4.355476588021768e-07
4.300009397955978e-05
4.762577275174355e-07
4.305980931173921e-05
5.118801512967058e-07
4.312251599374826e-05
5.423476482608799e-07
4.318764527745144e-05
5.676411526154121e-07
4.325468830551108e-05
5.877863688087618e-07
4.332317381719067e-05
6.028465874030679e-07
4.339268691505368e-05
6.129259929243131e-07
4.346285416747312e-05
6.181695001467508e-07
4.353335511915327e-05
6.187662962647848e-07
4.360391555706562e-05
6.149498518501578e-07
4.367430372715649e-05
6.069945030927819e-07
4.374434127003426e-05
5.95216667023124e-07
4.381387211412899e-05
5.799607559874409e-07
4.388281792006256e-05
5.61612612817254e-07
4.39510782373428e-05
5.405635416428747e-07
4.401869073160843e-05
5.172511684134465e-07
4.408556003975269e-05
4.92082445498983e-07
4.415181867340917e-05
4.655601419603106e-07
4.421737745400424e-05
4.380196591795176e-07
4.428241925226747e-05
4.100591216151456e-07
4.434687590102823e-05
3.818539852995191e-07
4.441091498272026e-05
3.54148078320701e-07
4.447445464187238e-05
3.269246104816352e-07
4.453761478815825e-05
3.010471274155215e-07
4.460027910219224e-05
2.763006240206233e-07
4.466249213742927e-05
2.536375938360536e-07
4.472407967931381e-05
2.326584846712454e-07
4.478499799794347e-05
2.143490247655486e-07
4.484500667716943e-05
1.981444289868029e-07
4.490399685857593e-05
1.849867260401686e-07
4.496162418646474e-05
1.743090227649413e-07
1.660887981272433e-07
4.501784690661713e-05
4.270708650234568e-05
2.906194474120384e-08
4.271810007802144e-05
8.794847098828094e-08
4.273624573385355e-05
1.455190752474421e-07
4.276118663767961e-05
2.009260203479443e-07
4.279245840569132e-05
2.534117864937773e-07
4.282950489952538e-05
3.024404857682737e-07
4.287176013148609e-05
3.476315390806484e-07
4.291863822292865e-05
3.886682654882729e-07
4.296956673157188e-05
4.253277892640429e-07
4.302398768860388e-05
4.57457649785697e-07
4.308137122417769e-05
4.849624664976309e-07
4.314121883831683e-05
5.077918038186251e-07
4.320307079060963e-05
5.259326066002177e-07
4.326650748079843e-05
5.394080249331278e-07
4.333115322725815e-05
5.482783243080794e-07
4.339667635981858e-05
5.526444073746259e-07
4.346279006304283e-05
5.526506058416822e-07
4.352925174839742e-05
5.484861623652982e-07
4.359586104512852e-05
5.403831942680647e-07
4.366246096278031e-05
5.286147370181559e-07
4.372893022420615e-05
5.134894884301471e-07
4.379519095897822e-05
4.95349883298619e-07
4.386118815641972e-05
4.745643646168793e-07
4.392691180700333e-05
4.515255559255306e-07
4.399235285028927e-05
4.266394594474789e-07
4.405757417193312e-05
4.003368971205782e-07
4.412256438051857e-05
3.730275465584544e-07
4.418746058369397e-05
3.451610326395922e-07
4.425218690988475e-05
3.171257901433886e-07
4.431689792709368e-05
2.894352073807156e-07
4.438148677566977e-05
2.623339215818175e-07
4.444606203186738e-05
2.364700422040769e-07
4.451047406972681e-05
2.118867657333118e-07
4.457473598116571e-05
1.893738667197529e-07
4.463863485710029e-05
1.687577920107361e-07
4.470207492535752e-05
1.509071296601431e-07
4.476477035177107e-05
1.354471515386727e-07
4.482654535460456e-05
1.23209826558933e-07
4.488700200863305e-05
1.138503999980113e-07
1.070597388812581e-07
4.494602899076447e-05
4.270667900438416e-05
2.578369236356076e-08
4.271647130454396e-05
7.815588135286874e-08
4.273262331637511e-05
1.293665897729991e-07
4.275488430231484e-05
1.786643850909392e-07
4.278288209440012e-05
2.254131789908195e-07
4.281616916630341e-05
2.691524430168828e-07
4.285428414330657e-05
3.095154473080426e-07
4.28967404047166e-05
3.462107577683298e-07
4.294304704127559e-05
3.79019787831981e-07
4.299272047418876e-05
4.077827468733768e-07
4.304529575645891e-05
4.32385622867803e-07
4.310033463679862e-05
4.527512846855131e-07
4.315743065182452e-05
4.688348891267197e-07
4.321621288667219e-05
4.806240375443934e-07
4.327634825111953e-05
4.881411702854216e-07
4.333754346992631e-05
4.914473743608022e-07
4.339954637309361e-05
4.906458753525719e-07
4.346214651314555e-05
4.858841923693006e-07
4.352517403717906e-05
4.773538469644872e-07
4.358849836190588e-05
4.652886037592282e-07
4.365202506224238e-05
4.499610008777239e-07
4.371569437364267e-05
4.316788112764188e-07
4.377947660996734e-05
4.107803981947824e-07
4.384337010116592e-05
3.876303677999568e-07