/*--------------------------------*- C++ -*----------------------------------*\
| =========                 |                                                 |
| \\      /  F ield         | OpenFOAM: The Open Source CFD Toolbox           |
|  \\    /   O peration     | Version:  2206                                  |
|   \\  /    A nd           | Website:  www.openfoam.com                      |
|    \\/     M anipulation  |                                                 |
\*---------------------------------------------------------------------------*/
FoamFile
{
    version     2.0;
    format      ascii;
    arch        "LSB;label=32;scalar=64";
    class       pointVectorField;
    location    "1";
    object      pointDisplacement;
}
// * * * * * * * * * * * * * * * * * * * * * * * * * * * * * * * * * * * * * //

dimensions      [0 1 0 0 0 0 0];

internalField   nonuniform List<vector> 
36854
(
(0 0 0)
(0 0 0)
(0 0 0)
(0 0 0)
(0 0 0)
(0 0 0)
(0 0 0)
(0 0 0)
(0 0 0)
(0 0 0)
(0 0 0)
(0 0 0)
(0 0 0)
(0 0 0)
(0 0 0)
(0 0 0)
(0 0 0)
(0 0 0)
(0 0 0)
(0 0 0)
(0 0 0)
(0 0 0)
(0 0 0)
(0 0 0)
(0 0 0)
(0 0 0)
(0 0 0)
(0 0 0)
(0 0 0)
(0 0 0)
(0 0 0)
(0 0 0)
(0 0 0)
(0 0 0)
(0 0 0)
(0 0 0)
(0 0 0)
(0 0 0)
(0 0 0)
(0 0 0)
(0 0 0)
(0 0 0)
(0 5.965584632469348e-10 0)
(0 1.185698669528431e-09 0)
(0 1.767573855664389e-09 0)
(0 2.342332407821927e-09 0)
(0 2.910095736632622e-09 0)
(0 3.470961656129253e-09 0)
(0 4.024999152169924e-09 0)
(0 4.572242695231113e-09 0)
(0 5.11268654932193e-09 0)
(0 5.646279262526301e-09 0)
(0 6.172918433469053e-09 0)
(0 6.692445816547231e-09 0)
(0 7.204642819934035e-09 0)
(0 7.709226450956313e-09 0)
(0 8.20584576823122e-09 0)
(0 8.694078906541986e-09 0)
(0 9.173430747535435e-09 0)
(0 9.643331316059386e-09 0)
(0 1.0103134987603e-08 0)
(0 1.055212059619405e-08 0)
(0 1.098949253358669e-08 0)
(0 1.14143829289963e-08 0)
(0 1.182585499339727e-08 0)
(0 1.222290760295228e-08 0)
(0 1.260448118207132e-08 0)
(0 1.296946492767274e-08 0)
(0 1.33167053924717e-08 0)
(0 1.364501641693197e-08 0)
(0 1.395319036770356e-08 0)
(0 1.424001060629751e-08 0)
(0 1.450426507745441e-08 0)
(0 1.474476087497475e-08 0)
(0 1.496033961742922e-08 0)
(0 1.514989345145202e-08 0)
(0 1.531238149870986e-08 0)
(0 1.544684656327319e-08 0)
(0 1.555243184490957e-08 0)
(0 1.562839691309662e-08 0)
(0 1.567412969637027e-08 0)
(0 1.567644034054745e-08 0)
(0 0 0)
(0 1.185750494286546e-09 0)
(0 2.356423637177249e-09 0)
(0 3.512305889528067e-09 0)
(0 4.653683797106631e-09 0)
(0 5.780796539927391e-09 0)
(0 6.893838729900794e-09 0)
(0 7.992948911087604e-09 0)
(0 9.078197996443931e-09 0)
(0 1.014957798284703e-08 0)
(0 1.120699114076702e-08 0)
(0 1.225023980617679e-08 0)
(0 1.327901687542602e-08 0)
(0 1.429289709826564e-08 0)
(0 1.529132926947171e-08 0)
(0 1.627362943018901e-08 0)
(0 1.723897520320855e-08 0)
(0 1.818640140000109e-08 0)
(0 1.911479705000847e-08 0)
(0 2.002290401317395e-08 0)
(0 2.090931734375605e-08 0)
(0 2.177248757590475e-08 0)
(0 2.261072509808864e-08 0)
(0 2.342220677310977e-08 0)
(0 2.420498494212498e-08 0)
(0 2.49569989240354e-08 0)
(0 2.567608908538016e-08 0)
(0 2.636001351054667e-08 0)
(0 2.70064672483919e-08 0)
(0 2.76131040507812e-08 0)
(0 2.817756045362075e-08 0)
(0 2.869748198544918e-08 0)
(0 2.917055122787647e-08 0)
(0 2.959451740350159e-08 0)
(0 2.996722714077788e-08 0)
(0 3.028665607688533e-08 0)
(0 3.055094103423804e-08 0)
(0 3.075841269811705e-08 0)
(0 3.090762920943742e-08 0)
(0 3.099741252899558e-08 0)
(0 3.100298563666211e-08 0)
(0 0 0)
(0 1.767765737224682e-09 0)
(0 3.512533753502253e-09 0)
(0 5.234725954230773e-09 0)
(0 6.934767626893088e-09 0)
(0 8.613019173384303e-09 0)
(0 1.026977705060885e-08 0)
(0 1.190525566815778e-08 0)
(0 1.351956986957092e-08 0)
(0 1.511271813666537e-08 0)
(0 1.668456664850001e-08 0)
(0 1.823483431319235e-08 0)
(0 1.976307888781886e-08 0)
(0 2.126868430874274e-08 0)
(0 2.275084936883099e-08 0)
(0 2.420857789628212e-08 0)
(0 2.564067060990606e-08 0)
(0 2.704571884581013e-08 0)
(0 2.842210036885981e-08 0)
(0 2.976797749736977e-08 0)
(0 3.108129777959067e-08 0)
(0 3.235979746400132e-08 0)
(0 3.360100800051828e-08 0)
(0 3.480226579487471e-08 0)
(0 3.596072541215602e-08 0)
(0 3.70733763866866e-08 0)
(0 3.813706374348698e-08 0)
(0 3.914851227139532e-08 0)
(0 4.010435451058503e-08 0)
(0 4.100116232963625e-08 0)
(0 4.183548187292497e-08 0)
(0 4.260387156288837e-08 0)
(0 4.330294275074579e-08 0)
(0 4.392940253318886e-08 0)
(0 4.448009820508443e-08 0)
(0 4.495206282003992e-08 0)
(0 4.534256141647685e-08 0)
(0 4.564913770126583e-08 0)
(0 4.586966149154201e-08 0)
(0 4.600237800745925e-08 0)
(0 4.601131632440708e-08 0)
(0 0 0)
(0 2.342788120287922e-09 0)
(0 4.654386197351952e-09 0)
(0 6.935364609967819e-09 0)
(0 9.186298168055836e-09 0)
(0 1.140767930346508e-08 0)
(0 1.35999176259952e-08 0)
(0 1.576331539601742e-08 0)
(0 1.789804416836566e-08 0)
(0 2.000412262926157e-08 0)
(0 2.208139569876534e-08 0)
(0 2.412951499637192e-08 0)
(0 2.614792078742508e-08 0)
(0 2.81358255497543e-08 0)
(0 3.009219932459184e-08 0)
(0 3.201575704267311e-08 0)
(0 3.390494804408283e-08 0)
(0 3.575794803727652e-08 0)
(0 3.757265376702766e-08 0)
(0 3.934668068095778e-08 0)
(0 4.10773638978045e-08 0)
(0 4.276176278557193e-08 0)
(0 4.439666945206008e-08 0)
(0 4.597862143189976e-08 0)
(0 4.750391882123346e-08 0)
(0 4.896864606205907e-08 0)
(0 5.036869851203778e-08 0)
(0 5.169981385213083e-08 0)
(0 5.295760828472471e-08 0)
(0 5.413761736121991e-08 0)
(0 5.523534115430983e-08 0)
(0 5.624629336211232e-08 0)
(0 5.716605380680692e-08 0)
(0 5.799032367973686e-08 0)
(0 5.871498280106865e-08 0)
(0 5.933614812103945e-08 0)
(0 5.985023270812524e-08 0)
(0 6.02540045464842e-08 0)
(0 6.054464448943186e-08 0)
(0 6.071980178377782e-08 0)
(0 6.073254990486589e-08 0)
(0 0 0)
(0 2.910973610558734e-09 0)
(0 5.782288775596739e-09 0)
(0 8.614684462733882e-09 0)
(0 1.140890313504589e-08 0)
(0 1.416558673104841e-08 0)
(0 1.68852753052417e-08 0)
(0 1.956837641168219e-08 0)
(0 2.22151361397497e-08 0)
(0 2.482561178018516e-08 0)
(0 2.739964616001e-08 0)
(0 2.993684372735267e-08 0)
(0 3.243654850264817e-08 0)
(0 3.489782404676974e-08 0)
(0 3.731943563142657e-08 0)
(0 3.969983483272317e-08 0)
(0 4.203714680424088e-08 0)
(0 4.432916051994798e-08 0)
(0 4.657332230788154e-08 0)
(0 4.876673302081691e-08 0)
(0 5.090614920775444e-08 0)
(0 5.298798865752858e-08 0)
(0 5.500834068061051e-08 0)
(0 5.696298147466444e-08 0)
(0 5.884739488123657e-08 0)
(0 6.065679878310292e-08 0)
(0 6.238617731290193e-08 0)
(0 6.403031894328247e-08 0)
(0 6.558386040769658e-08 0)
(0 6.704133626147833e-08 0)
(0 6.839723373911483e-08 0)
(0 6.964605240176772e-08 0)
(0 7.078236790734343e-08 0)
(0 7.180089908382102e-08 0)
(0 7.269657735632956e-08 0)
(0 7.346461747961164e-08 0)
(0 7.410058846051167e-08 0)
(0 7.460048347956949e-08 0)
(0 7.496078733089032e-08 0)
(0 7.517853821807937e-08 0)
(0 7.519595208312712e-08 0)
(0 0 0)
(0 3.472453564685885e-09 0)
(0 6.896502667994947e-09 0)
(0 1.027308103336281e-08 0)
(0 1.360312315880747e-08 0)
(0 1.688744394623808e-08 0)
(0 2.012673673837555e-08 0)
(0 2.332153695444557e-08 0)
(0 2.647218778407675e-08 0)
(0 2.957880790669662e-08 0)
(0 3.264126125861412e-08 0)
(0 3.565912891801053e-08 0)
(0 3.863168322251559e-08 0)
(0 4.155786427753049e-08 0)
(0 4.443625905717e-08 0)
(0 4.726508334364369e-08 0)
(0 5.004216679426673e-08 0)
(0 5.276494146668096e-08 0)
(0 5.543043417040864e-08 0)
(0 5.803526304431521e-08 0)
(0 6.057563878234717e-08 0)
(0 6.304737094118549e-08 0)
(0 6.544587976018528e-08 0)
(0 6.776621390307019e-08 0)
(0 7.000307448934287e-08 0)
(0 7.215084571866499e-08 0)
(0 7.420363230159895e-08 0)
(0 7.615530379412742e-08 0)
(0 7.79995457916831e-08 0)
(0 7.972991777314588e-08 0)
(0 8.133991720054719e-08 0)
(0 8.282304928242058e-08 0)
(0 8.417290160638526e-08 0)
(0 8.53832226498923e-08 0)
(0 8.644800299784042e-08 0)
(0 8.73615579400488e-08 0)
(0 8.811860998684816e-08 0)
(0 8.871436968116436e-08 0)
(0 8.914461268695495e-08 0)
(0 8.940574920958403e-08 0)
(0 8.942908504916922e-08 0)
(0 0 0)
(0 4.027329474289972e-09 0)
(0 7.997230881353008e-09 0)
(0 1.191086458521475e-08 0)
(0 1.576938716369081e-08 0)
(0 1.95738153876782e-08 0)
(0 2.332502385535425e-08 0)
(0 2.702370319331769e-08 0)
(0 3.06703206793276e-08 0)
(0 3.426508324965197e-08 0)
(0 3.780790290303867e-08 0)
(0 4.129836456318529e-08 0)
(0 4.473569651174374e-08 0)
(0 4.811874355470298e-08 0)
(0 5.144594313658474e-08 0)
(0 5.471530466885857e-08 0)
(0 5.792439239035588e-08 0)
(0 6.10703121267411e-08 0)
(0 6.414970236130003e-08 0)
(0 6.715873006799557e-08 0)
(0 7.009309178707144e-08 0)
(0 7.294802044022692e-08 0)
(0 7.571829838302897e-08 0)
(0 7.839827717309688e-08 0)
(0 8.098190449004992e-08 0)
(0 8.346275857390091e-08 0)
(0 8.58340904497888e-08 0)
(0 8.808887407697182e-08 0)
(0 9.021986439861085e-08 0)
(0 9.221966307773265e-08 0)
(0 9.408079148785065e-08 0)
(0 9.579577029057668e-08 0)
(0 9.735720468629564e-08 0)
(0 9.875787417885872e-08 0)
(0 9.999082546350491e-08 0)
(0 1.010494668392591e-07 0)
(0 1.019276623637753e-07 0)
(0 1.026198237728072e-07 0)
(0 1.031209977741646e-07 0)
(0 1.03426944284461e-07 0)
(0 1.034578566312777e-07 0)
(0 0 0)
(0 4.575667261687738e-09 0)
(0 9.084606651982579e-09 0)
(0 1.352824255300339e-08 0)
(0 1.790798893894323e-08 0)
(0 2.222509838319039e-08 0)
(0 2.648065943834954e-08 0)
(0 3.067554969688745e-08 0)
(0 3.481039161165506e-08 0)
(0 3.888551103002746e-08 0)
(0 4.290089844223044e-08 0)
(0 4.685617299614408e-08 0)
(0 5.075054938570504e-08 0)
(0 5.458280777718029e-08 0)
(0 5.835126699646421e-08 0)
(0 6.205376126036759e-08 0)
(0 6.568762079445147e-08 0)
(0 6.924965673768857e-08 0)
(0 7.273615078801256e-08 0)
(0 7.614285009002311e-08 0)
(0 7.946496790364213e-08 0)
(0 8.269719061675403e-08 0)
(0 8.583369167179017e-08 0)
(0 8.886815296150373e-08 0)
(0 9.179379420839417e-08 0)
(0 9.4603410771112e-08 0)
(0 9.728942021597955e-08 0)
(0 9.98439178497764e-08 0)
(0 1.022587412299749e-07 0)
(0 1.04525543451581e-07 0)
(0 1.066358747592158e-07 0)
(0 1.085812717557175e-07 0)
(0 1.103533531842778e-07 0)
(0 1.119439209629888e-07 0)
(0 1.133450648638832e-07 0)
(0 1.145492689684183e-07 0)
(0 1.155495178065363e-07 0)
(0 1.16339399870995e-07 0)
(0 1.169132057928876e-07 0)
(0 1.172660163068168e-07 0)
(0 1.173065632268919e-07 0)
(0 0 0)
(0 5.117491577892632e-09 0)
(0 1.015868213881465e-08 0)
(0 1.512530271334766e-08 0)
(0 2.001906492827783e-08 0)
(0 2.4841495752236e-08 0)
(0 2.959393475769275e-08 0)
(0 3.427748233257735e-08 0)
(0 3.889295097080728e-08 0)
(0 4.344081957763789e-08 0)
(0 4.792119077391586e-08 0)
(0 5.233375123813549e-08 0)
(0 5.667773518481845e-08 0)
(0 6.095189114101016e-08 0)
(0 6.515445224867913e-08 0)
(0 6.928311038851546e-08 0)
(0 7.33349944887585e-08 0)
(0 7.730665344955399e-08 0)
(0 8.119404417675728e-08 0)
(0 8.499252527631313e-08 0)
(0 8.869685700800237e-08 0)
(0 9.230120813147573e-08 0)
(0 9.579917029353754e-08 0)
(0 9.91837805985497e-08 0)
(0 1.024475529682302e-07 0)
(0 1.055825188276432e-07 0)
(0 1.085802775458019e-07 0)
(0 1.114320569079311e-07 0)
(0 1.141287836995271e-07 0)
(0 1.166611642396421e-07 0)
(0 1.190197744151116e-07 0)
(0 1.211951584452806e-07 0)
(0 1.231779352589389e-07 0)
(0 1.249589110068443e-07 0)
(0 1.265291958834904e-07 0)
(0 1.278803231120274e-07 0)
(0 1.290043676737731e-07 0)
(0 1.298940621229042e-07 0)
(0 1.305429064183204e-07 0)
(0 1.309452664195898e-07 0)
(0 1.309979196509822e-07 0)
(0 0 0)
(0 5.652780288800394e-09 0)
(0 1.121941760442209e-08 0)
(0 1.670199723010726e-08 0)
(0 2.210257331222361e-08 0)
(0 2.742299011186332e-08 0)
(0 3.266487929767248e-08 0)
(0 3.782960361238278e-08 0)
(0 4.29182039172816e-08 0)
(0 4.793134952374645e-08 0)
(0 5.28692917729351e-08 0)
(0 5.773182088391361e-08 0)
(0 6.251822615543169e-08 0)
(0 6.722725967609374e-08 0)
(0 7.185710377086167e-08 0)
(0 7.640534248762425e-08 0)
(0 8.086893750469056e-08 0)
(0 8.524420891684371e-08 0)
(0 8.952682143182962e-08 0)
(0 9.371177657803437e-08 0)
(0 9.779341158409587e-08 0)
(0 1.017654056379872e-07 0)
(0 1.056207942616082e-07 0)
(0 1.093519925412949e-07 0)
(0 1.129508279284769e-07 0)
(0 1.164085832612626e-07 0)
(0 1.197160505503691e-07 0)
(0 1.228635959156477e-07 0)
(0 1.258412358480412e-07 0)
(0 1.286387247041515e-07 0)
(0 1.312456530181243e-07 0)
(0 1.336515558442182e-07 0)
(0 1.358460299345681e-07 0)
(0 1.378188581276254e-07 0)
(0 1.395601388969188e-07 0)
(0 1.410604186151108e-07 0)
(0 1.423108237512942e-07 0)
(0 1.433031899347846e-07 0)
(0 1.440301843894093e-07 0)
(0 1.444854158318227e-07 0)
(0 1.445530737248322e-07 0)
(0 0 0)
(0 6.181459244372848e-09 0)
(0 1.226667121263862e-08 0)
(0 1.825812769450302e-08 0)
(0 2.41582744834907e-08 0)
(0 2.996931997077057e-08 0)
(0 3.569323264718692e-08 0)
(0 4.133168055313026e-08 0)
(0 4.688597438125397e-08 0)
(0 5.235701410604851e-08 0)
(0 5.774523907155033e-08 0)
(0 6.305058153300268e-08 0)
(0 6.827242371902191e-08 0)
(0 7.340955855686607e-08 0)
(0 7.846015428393462e-08 0)
(0 8.342172325274941e-08 0)
(0 8.829109532323323e-08 0)
(0 9.30643963235741e-08 0)
(0 9.773703214725621e-08 0)
(0 1.023036791361677e-07 0)
(0 1.067582814744411e-07 0)
(0 1.110940563802779e-07 0)
(0 1.153035079278399e-07 0)
(0 1.193784503517167e-07 0)
(0 1.23310041674903e-07 0)
(0 1.270888284493111e-07 0)
(0 1.307048022970244e-07 0)
(0 1.341474687824858e-07 0)
(0 1.374059289236523e-07 0)
(0 1.404689733592476e-07 0)
(0 1.433251888288456e-07 0)
(0 1.459630761971103e-07 0)
(0 1.483711787743539e-07 0)
(0 1.505382191717949e-07 0)
(0 1.524532424091133e-07 0)
(0 1.541057624992384e-07 0)
(0 1.554859093073722e-07 0)
(0 1.565845721252807e-07 0)
(0 1.573935359306418e-07 0)
(0 1.579056037799947e-07 0)
(0 1.579916050640019e-07 0)
(0 0 0)
(0 6.703397394233009e-09 0)
(0 1.330018954470165e-08 0)
(0 1.979333127720376e-08 0)
(0 2.618571303588966e-08 0)
(0 3.247995773194322e-08 0)
(0 3.867841867529227e-08 0)
(0 4.478311517031058e-08 0)
(0 5.079567200939718e-08 0)
(0 5.671726269585466e-08 0)
(0 6.254855629092043e-08 0)
(0 6.828966785030151e-08 0)
(0 7.394011249243471e-08 0)
(0 7.949876322337846e-08 0)
(0 8.496381273119476e-08 0)
(0 9.033273945527482e-08 0)
(0 9.56022783324322e-08 0)
(0 1.007683967204606e-07 0)
(0 1.058262760993983e-07 0)
(0 1.107703002483394e-07 0)
(0 1.155940506877255e-07 0)
(0 1.202903102589171e-07 0)
(0 1.248510757784465e-07 0)
(0 1.292675807462541e-07 0)
(0 1.33530329096537e-07 0)
(0 1.376291409464683e-07 0)
(0 1.415532112109918e-07 0)
(0 1.452911817999381e-07 0)
(0 1.488312278864705e-07 0)
(0 1.521611584251568e-07 0)
(0 1.552685306995604e-07 0)
(0 1.581407781949516e-07 0)
(0 1.60765350531506e-07 0)
(0 1.63129863577271e-07 0)
(0 1.652222572197977e-07 0)
(0 1.670309576533922e-07 0)
(0 1.685450404838564e-07 0)
(0 1.697543904880288e-07 0)
(0 1.706498533247483e-07 0)
(0 1.712233718808537e-07 0)
(0 1.713315085283401e-07 0)
(0 0 0)
(0 7.218402304241009e-09 0)
(0 1.431959893029537e-08 0)
(0 2.130706811667596e-08 0)
(0 2.818420140912418e-08 0)
(0 3.49540897585563e-08 0)
(0 4.161952215546953e-08 0)
(0 4.818291777588025e-08 0)
(0 5.464626223371122e-08 0)
(0 6.101104772187688e-08 0)
(0 6.727821689435946e-08 0)
(0 7.34481104182845e-08 0)
(0 7.952041820808251e-08 0)
(0 8.5494134443072e-08 0)
(0 9.136751656505035e-08 0)
(0 9.7138048553496e-08 0)
(0 1.028024088823127e-07 0)
(0 1.083564436728363e-07 0)
(0 1.137951456716574e-07 0)
(0 1.191126397964344e-07 0)
(0 1.243021761049546e-07 0)
(0 1.293561311475738e-07 0)
(0 1.342660187545128e-07 0)
(0 1.390225113791584e-07 0)
(0 1.436154731563677e-07 0)
(0 1.480340058286768e-07 0)
(0 1.522665086294944e-07 0)
(0 1.56300753075943e-07 0)
(0 1.601239734001915e-07 0)
(0 1.637229730237332e-07 0)
(0 1.670842470447802e-07 0)
(0 1.701941201620197e-07 0)
(0 1.730388988052436e-07 0)
(0 1.756050355043296e-07 0)
(0 1.778793027373583e-07 0)
(0 1.798489727069421e-07 0)
(0 1.815019987633553e-07 0)
(0 1.828271935690734e-07 0)
(0 1.83814398449515e-07 0)
(0 1.844546356840492e-07 0)
(0 1.845891630748204e-07 0)
(0 0 0)
(0 7.726216129134006e-09 0)
(0 1.532439769498285e-08 0)
(0 2.279861008201211e-08 0)
(0 3.015280535621235e-08 0)
(0 3.739059869242083e-08 0)
(0 4.451526804604609e-08 0)
(0 5.152968330209149e-08 0)
(0 5.843623969570936e-08 0)
(0 6.523679523173256e-08 0)
(0 7.193261190741376e-08 0)
(0 7.852430062548788e-08 0)
(0 8.501176977372513e-08 0)
(0 9.139417754258809e-08 0)
(0 9.766988815473385e-08 0)
(0 1.038364322891701e-07 0)
(0 1.098904720989778e-07 0)
(0 1.158277713443974e-07 0)
(0 1.216431712919267e-07 0)
(0 1.27330573163237e-07 0)
(0 1.328829280523452e-07 0)
(0 1.382922353612187e-07 0)
(0 1.435495509265065e-07 0)
(0 1.486450061147252e-07 0)
(0 1.535678392386472e-07 0)
(0 1.583064406796485e-07 0)
(0 1.628484130724145e-07 0)
(0 1.671806478004493e-07 0)
(0 1.712894188428614e-07 0)
(0 1.751604946850585e-07 0)
(0 1.787792685416942e-07 0)
(0 1.821309065295682e-07 0)
(0 1.852005126722156e-07 0)
(0 1.879733087330573e-07 0)
(0 1.904348258962229e-07 0)
(0 1.925711043016867e-07 0)
(0 1.943688954721139e-07 0)
(0 1.958158618155831e-07 0)
(0 1.969007665690448e-07 0)
(0 1.976136447769206e-07 0)
(0 1.977792873593511e-07 0)
(0 0 0)
(0 8.226512100939293e-09 0)
(0 1.631394943587949e-08 0)
(0 2.426703106627517e-08 0)
(0 3.20903314266045e-08 0)
(0 3.97880482492308e-08 0)
(0 4.736400367757969e-08 0)
(0 5.482157092488448e-08 0)
(0 6.216360531879559e-08 0)
(0 6.939237939994821e-08 0)
(0 7.650952182596189e-08 0)
(0 8.35159599210336e-08 0)
(0 9.041186580574732e-08 0)
(0 9.719660614263939e-08 0)
(0 1.038686956412461e-07 0)
(0 1.10425754582677e-07 0)
(0 1.168644707489846e-07 0)
(0 1.231805662772567e-07 0)
(0 1.293687701024639e-07 0)
(0 1.354227968058612e-07 0)
(0 1.413353328451617e-07 0)
(0 1.470980313050802e-07 0)
(0 1.527015164662296e-07 0)
(0 1.581353996379466e-07 0)
(0 1.633883078241518e-07 0)
(0 1.684479268746478e-07 0)
(0 1.733010607969568e-07 0)
(0 1.77933708841616e-07 0)
(0 1.823311617994586e-07 0)
(0 1.864781186342754e-07 0)
(0 1.903588240917261e-07 0)
(0 1.939572272549354e-07 0)
(0 1.97257160150169e-07 0)
(0 2.00242534451812e-07 0)
(0 2.028975531287959e-07 0)
(0 2.052069325787808e-07 0)
(0 2.071561295064839e-07 0)
(0 2.087315656245005e-07 0)
(0 2.099208421743274e-07 0)
(0 2.107129333821746e-07 0)
(0 2.109148839495584e-07 0)
(0 0 0)
(0 8.71889159921134e-09 0)
(0 1.728747745002318e-08 0)
(0 2.57111989858102e-08 0)
(0 3.3995316684829e-08 0)
(0 4.214467074928652e-08 0)
(0 5.016368414023938e-08 0)
(0 5.805628731057461e-08 0)
(0 6.582584738012795e-08 0)
(0 7.347510135841206e-08 0)
(0 8.100609310998087e-08 0)
(0 8.842011385125543e-08 0)
(0 9.571764606657366e-08 0)
(0 1.028983108364695e-07 0)
(0 1.09960818684138e-07 0)
(0 1.169029241682626e-07 0)
(0 1.237213845834562e-07 0)
(0 1.304119232749913e-07 0)
(0 1.369691982333641e-07 0)
(0 1.433867768069721e-07 0)
(0 1.496571175570042e-07 0)
(0 1.557715604750286e-07 0)
(0 1.61720326985692e-07 0)
(0 1.674925313560304e-07 0)
(0 1.730762053164947e-07 0)
(0 1.784583378490715e-07 0)
(0 1.836249321911131e-07 0)
(0 1.885610821098123e-07 0)
(0 1.932510693861428e-07 0)
(0 1.976784841690398e-07 0)
(0 2.01826369380436e-07 0)
(0 2.056773896338039e-07 0)
(0 2.092140241491413e-07 0)
(0 2.124187819026484e-07 0)
(0 2.152744357668867e-07 0)
(0 2.177642707435667e-07 0)
(0 2.198723396770304e-07 0)
(0 2.215837182053079e-07 0)
(0 2.228847492271308e-07 0)
(0 2.237632640815329e-07 0)
(0 2.240071749382676e-07 0)
(0 0 0)
(0 9.202881875897621e-09 0)
(0 1.824406045281898e-08 0)
(0 2.712976968008005e-08 0)
(0 3.586602091006261e-08 0)
(0 4.445835767474949e-08 0)
(0 5.291186120381991e-08 0)
(0 6.123107385689315e-08 0)
(0 6.941992698894903e-08 0)
(0 7.748167279004558e-08 0)
(0 8.541881973546227e-08 0)
(0 9.323307138027844e-08 0)
(0 1.009252683344721e-07 0)
(0 1.084953333625825e-07 0)
(0 1.159422196678522e-07 0)
(0 1.232638625468775e-07 0)
(0 1.304571347396805e-07 0)
(0 1.375178059544078e-07 0)
(0 1.444405072180212e-07 0)
(0 1.512187008963464e-07 0)
(0 1.578446574396578e-07 0)
(0 1.643094401428635e-07 0)
(0 1.706028994589682e-07 0)
(0 1.767136786637396e-07 0)
(0 1.826292329261987e-07 0)
(0 1.883358640749761e-07 0)
(0 1.938187735380886e-07 0)
(0 1.99062136037679e-07 0)
(0 2.040491965969411e-07 0)
(0 2.087623932109206e-07 0)
(0 2.1318350708836e-07 0)
(0 2.172938416314748e-07 0)
(0 2.210744302378165e-07 0)
(0 2.245062715588263e-07 0)
(0 2.275705890453967e-07 0)
(0 2.302491095144514e-07 0)
(0 2.325243532059563e-07 0)
(0 2.343799255489369e-07 0)
(0 2.358007987843203e-07 0)
(0 2.367735681444784e-07 0)
(0 2.370655325728435e-07 0)
(0 0 0)
(0 9.67793451392046e-09 0)
(0 1.918262973572403e-08 0)
(0 2.852118292368043e-08 0)
(0 3.770042154461389e-08 0)
(0 4.672665357300089e-08 0)
(0 5.560567613808476e-08 0)
(0 6.434269834183416e-08 0)
(0 7.294226842906704e-08 0)
(0 8.140820478661534e-08 0)
(0 8.974353034783758e-08 0)
(0 9.795041007935929e-08 0)
(0 1.060300913303821e-07 0)
(0 1.139828469334632e-07 0)
(0 1.218079210620009e-07 0)
(0 1.295034779769112e-07 0)
(0 1.370665539367136e-07 0)
(0 1.444930127054095e-07 0)
(0 1.51777505275206e-07 0)
(0 1.589134346302714e-07 0)
(0 1.658929266165462e-07 0)
(0 1.727068082530156e-07 0)
(0 1.793445951210678e-07 0)
(0 1.857944897959866e-07 0)
(0 1.920433936278498e-07 0)
(0 1.980769345198688e-07 0)
(0 2.038795136620285e-07 0)
(0 2.094343744159851e-07 0)
(0 2.147236966588914e-07 0)
(0 2.197287198106159e-07 0)
(0 2.244298974107518e-07 0)
(0 2.288070853936855e-07 0)
(0 2.328397650523051e-07 0)
(0 2.365073000260886e-07 0)
(0 2.397892244821018e-07 0)
(0 2.426655570268536e-07 0)
(0 2.451171319241929e-07 0)
(0 2.471259361190054e-07 0)
(0 2.48675437644746e-07 0)
(0 2.497508868998226e-07 0)
(0 2.50097409552483e-07 0)
(0 0 0)
(0 1.014342470365464e-08 0)
(0 2.010196792172277e-08 0)
(0 2.98836607756433e-08 0)
(0 3.949621167704829e-08 0)
(0 4.894675364825124e-08 0)
(0 5.824185682937062e-08 0)
(0 6.738745142873759e-08 0)
(0 7.638875486620076e-08 0)
(0 8.525020252422912e-08 0)
(0 9.397538162422129e-08 0)
(0 1.025669678469447e-07 0)
(0 1.110266644187038e-07 0)
(0 1.193551434913715e-07 0)
(0 1.275519897581063e-07 0)
(0 1.356156463713869e-07 0)
(0 1.435433633705719e-07 0)
(0 1.513311489879169e-07 0)
(0 1.589737243907885e-07 0)
(0 1.664644826400143e-07 0)
(0 1.737954529060575e-07 0)
(0 1.809572712912619e-07 0)
(0 1.879391599609376e-07 0)
(0 1.947289166879043e-07 0)
(0 2.013129173575535e-07 0)
(0 2.076761344477976e-07 0)
(0 2.138021749622293e-07 0)
(0 2.19673341711026e-07 0)
(0 2.252707221385946e-07 0)
(0 2.305743090039356e-07 0)
(0 2.35563157022459e-07 0)
(0 2.402155789541466e-07 0)
(0 2.445093834469006e-07 0)
(0 2.484221551076696e-07 0)
(0 2.519315747166866e-07 0)
(0 2.550157742424361e-07 0)
(0 2.576537174892493e-07 0)
(0 2.598255930744653e-07 0)
(0 2.615132023523915e-07 0)
(0 2.627003197720754e-07 0)
(0 2.631082753765139e-07 0)
(0 0 0)
(0 1.059865142472596e-08 0)
(0 2.100070948292214e-08 0)
(0 3.121520849931695e-08 0)
(0 4.125080135659072e-08 0)
(0 5.111550539789623e-08 0)
(0 6.08167196082215e-08 0)
(0 7.036114850072277e-08 0)
(0 7.975472995310213e-08 0)
(0 8.90025663517332e-08 0)
(0 9.810885850516175e-08 0)
(0 1.070768418889849e-07 0)
(0 1.159087248834352e-07 0)
(0 1.246056287663834e-07 0)
(0 1.331675293317757e-07 0)
(0 1.415932001214541e-07 0)
(0 1.498801573925974e-07 0)
(0 1.580246071005025e-07 0)
(0 1.660213943650771e-07 0)
(0 1.738639561182361e-07 0)
(0 1.815442779080467e-07 0)
(0 1.89052856173599e-07 0)
(0 1.963786677105782e-07 0)
(0 2.035091485266863e-07 0)
(0 2.104301848378433e-07 0)
(0 2.171261195703452e-07 0)
(0 2.235797783862988e-07 0)
(0 2.297725198949674e-07 0)
(0 2.356843152800779e-07 0)
(0 2.412938629598481e-07 0)
(0 2.465787439650939e-07 0)
(0 2.515156233020313e-07 0)
(0 2.560805014714136e-07 0)
(0 2.602490183615471e-07 0)
(0 2.639968087845789e-07 0)
(0 2.672999049518818e-07 0)
(0 2.701351763142687e-07 0)
(0 2.72480791746745e-07 0)
(0 2.743166835249182e-07 0)
(0 2.756249859760336e-07 0)
(0 2.761015667280201e-07 0)
(0 0 0)
(0 1.104283862131328e-08 0)
(0 2.187734318558776e-08 0)
(0 3.251361828737161e-08 0)
(0 4.296132253746353e-08 0)
(0 5.322941465379527e-08 0)
(0 6.332617620943537e-08 0)
(0 7.325913730877209e-08 0)
(0 8.30350058831306e-08 0)
(0 9.26595999139491e-08 0)
(0 1.021377819950463e-07 0)
(0 1.114733957423814e-07 0)
(0 1.206692036527771e-07 0)
(0 1.297268261057725e-07 0)
(0 1.386466812993592e-07 0)
(0 1.474279260161759e-07 0)
(0 1.560683972384461e-07 0)
(0 1.645645547757984e-07 0)
(0 1.729114252501453e-07 0)
(0 1.811025480079322e-07 0)
(0 1.891299238159961e-07 0)
(0 1.969839675579327e-07 0)
(0 2.046534665984163e-07 0)
(0 2.121255470368261e-07 0)
(0 2.193856507375892e-07 0)
(0 2.264175268024527e-07 0)
(0 2.332032420235986e-07 0)
(0 2.397232157866316e-07 0)
(0 2.459562858061089e-07 0)
(0 2.518798118567125e-07 0)
(0 2.574698251410146e-07 0)
(0 2.627012308846872e-07 0)
(0 2.675480708988973e-07 0)
(0 2.719838509047163e-07 0)
(0 2.759819341200403e-07 0)
(0 2.79515997838026e-07 0)
(0 2.825605435925584e-07 0)
(0 2.850914444649515e-07 0)
(0 2.87086505917466e-07 0)
(0 2.88526008528966e-07 0)
(0 2.89078662331979e-07 0)
(0 0 0)
(0 1.147513745679584e-08 0)
(0 2.273021662301013e-08 0)
(0 3.377647601920818e-08 0)
(0 4.462463794289696e-08 0)
(0 5.528465637916634e-08 0)
(0 6.576574627733853e-08 0)
(0 7.607631191199532e-08 0)
(0 8.622387844229957e-08 0)
(0 9.621502593893743e-08 0)
(0 1.060553252487533e-07 0)
(0 1.157492751579301e-07 0)
(0 1.253002403982539e-07 0)
(0 1.347103901211522e-07 0)
(0 1.439806365453032e-07 0)
(0 1.531105735713862e-07 0)
(0 1.620984152593429e-07 0)
(0 1.70940934188772e-07 0)
(0 1.796333998837372e-07 0)
(0 1.881695176942074e-07 0)
(0 1.965413688055654e-07 0)
(0 2.047393524161507e-07 0)
(0 2.12752131603995e-07 0)
(0 2.205665850218588e-07 0)
(0 2.281677673362251e-07 0)
(0 2.355388822756948e-07 0)
(0 2.426612732771966e-07 0)
(0 2.495144379889903e-07 0)
(0 2.560760742423524e-07 0)
(0 2.623221664168781e-07 0)
(0 2.682271222002924e-07 0)
(0 2.73763970295526e-07 0)
(0 2.789046292759074e-07 0)
(0 2.836202560834391e-07 0)
(0 2.878816791519761e-07 0)
(0 2.91659915497594e-07 0)
(0 2.949267633944408e-07 0)
(0 2.976554531461222e-07 0)
(0 2.998213295505274e-07 0)
(0 3.014025313714993e-07 0)
(0 3.020388959928755e-07 0)
(0 0 0)
(0 1.189462972758741e-08 0)
(0 2.355754298467915e-08 0)
(0 3.500117126073946e-08 0)
(0 4.623735411672411e-08 0)
(0 5.727709054669498e-08 0)
(0 6.813057580237442e-08 0)
(0 7.880713336231485e-08 0)
(0 8.931514958652374e-08 0)
(0 9.966201030130028e-08 0)
(0 1.098540386548419e-07 0)
(0 1.198964336661862e-07 0)
(0 1.297932089611272e-07 0)
(0 1.395471312523862e-07 0)
(0 1.491596581819396e-07 0)
(0 1.586308752067713e-07 0)
(0 1.679594312830418e-07 0)
(0 1.771424731979485e-07 0)
(0 1.861755785268461e-07 0)
(0 1.950526873730253e-07 0)
(0 2.037660333012184e-07 0)
(0 2.123060742308971e-07 0)
(0 2.206614245444998e-07 0)
(0 2.288187903258579e-07 0)
(0 2.367629105141713e-07 0)
(0 2.444765078748576e-07 0)
(0 2.519402550753065e-07 0)
(0 2.591327628116821e-07 0)
(0 2.660305988199777e-07 0)
(0 2.726083486094359e-07 0)
(0 2.788387306681949e-07 0)
(0 2.846927803657286e-07 0)
(0 2.901401173114803e-07 0)
(0 2.951493098607442e-07 0)
(0 2.996883470190781e-07 0)
(0 3.037252214802627e-07 0)
(0 3.07228617671137e-07 0)
(0 3.101686863544148e-07 0)
(0 3.125178757812786e-07 0)
(0 3.142517834691374e-07 0)
(0 3.149796274698789e-07 0)
(0 0 0)
(0 1.230033250586812e-08 0)
(0 2.43574101904853e-08 0)
(0 3.618491068788999e-08 0)
(0 4.779583889401847e-08 0)
(0 5.920228338051935e-08 0)
(0 7.041546182739517e-08 0)
(0 8.144565753551325e-08 0)
(0 9.230215802058579e-08 0)
(0 1.029931949267365e-07 0)
(0 1.13525884586281e-07 0)
(0 1.239061686229057e-07 0)
(0 1.341387540507454e-07 0)
(0 1.442270523651428e-07 0)
(0 1.541731171561177e-07 0)
(0 1.639775798080882e-07 0)
(0 1.736395828864992e-07 0)
(0 1.831567108639698e-07 0)
(0 1.925249179196401e-07 0)
(0 2.017384526750238e-07 0)
(0 2.107897799338904e-07 0)
(0 2.196694998062977e-07 0)
(0 2.283662650604602e-07 0)
(0 2.368666982123072e-07 0)
(0 2.45155310790929e-07 0)
(0 2.532144284725422e-07 0)
(0 2.610241274166605e-07 0)
(0 2.685621892088883e-07 0)
(0 2.758040843177234e-07 0)
(0 2.827229968355122e-07 0)
(0 2.892899063016096e-07 0)
(0 2.95473745223378e-07 0)
(0 3.012416528974372e-07 0)
(0 3.065593463704954e-07 0)
(0 3.113916266417304e-07 0)
(0 3.157030310834869e-07 0)
(0 3.194586303450273e-07 0)
(0 3.226249498422073e-07 0)
(0 3.251709768492558e-07 0)
(0 3.270692088704846e-07 0)
(0 3.278964040121844e-07 0)
(0 0 0)
(0 1.269120406636502e-08 0)
(0 2.512779249047428e-08 0)
(0 3.732473507432145e-08 0)
(0 4.929624346985943e-08 0)
(0 6.105553418218937e-08 0)
(0 7.261488369097106e-08 0)
(0 8.398557043311889e-08 0)
(0 9.517781817414858e-08 0)
(0 1.062007400214969e-07 0)
(0 1.170622824119868e-07 0)
(0 1.277691684621374e-07 0)
(0 1.383268401067108e-07 0)
(0 1.487393984704058e-07 0)
(0 1.590095419230892e-07 0)
(0 1.691385012646749e-07 0)
(0 1.791259714779508e-07 0)
(0 1.889700394856998e-07 0)
(0 1.986671073662869e-07 0)
(0 2.08211810539688e-07 0)
(0 2.175969305621959e-07 0)
(0 2.268133024017671e-07 0)
(0 2.358497164590064e-07 0)
(0 2.446928162178474e-07 0)
(0 2.533269933378198e-07 0)
(0 2.617342833341542e-07 0)
(0 2.698942668404312e-07 0)
(0 2.777839839156822e-07 0)
(0 2.853778720207026e-07 0)
(0 2.92647742154038e-07 0)
(0 2.995628120802981e-07 0)
(0 3.060898202535877e-07 0)
(0 3.121932482514338e-07 0)
(0 3.178356821312002e-07 0)
(0 3.229783423358308e-07 0)
(0 3.275818051538858e-07 0)
(0 3.316069231867483e-07 0)
(0 3.350159245419276e-07 0)
(0 3.377736299504452e-07 0)
(0 3.398486889940887e-07 0)
(0 3.407832899056301e-07 0)
(0 0 0)
(0 1.306615113329524e-08 0)
(0 2.586656459394156e-08 0)
(0 3.841753993053282e-08 0)
(0 5.073452917637849e-08 0)
(0 6.283190787739021e-08 0)
(0 7.472304097884959e-08 0)
(0 8.64202311724627e-08 0)
(0 9.793466785447598e-08 0)
(0 1.092763759893254e-07 0)
(0 1.204541642400149e-07 0)
(0 1.314755717664879e-07 0)
(0 1.42346813108933e-07 0)
(0 1.530727205661072e-07 0)
(0 1.63656683451153e-07 0)
(0 1.741005835615311e-07 0)
(0 1.844047261397837e-07 0)
(0 1.945677655351711e-07 0)
(0 2.04586624714886e-07 0)
(0 2.144564077366719e-07 0)
(0 2.241703043111421e-07 0)
(0 2.337194856938909e-07 0)
(0 2.43092991413527e-07 0)
(0 2.522776068422716e-07 0)