/*--------------------------------*- C++ -*----------------------------------*\
| =========                 |                                                 |
| \\      /  F ield         | OpenFOAM: The Open Source CFD Toolbox           |
|  \\    /   O peration     | Version:  2206                                  |
|   \\  /    A nd           | Website:  www.openfoam.com                      |
|    \\/     M anipulation  |                                                 |
\*---------------------------------------------------------------------------*/
FoamFile
{
    version     2.0;
    format      ascii;
    arch        "LSB;label=32;scalar=64";
    class       volVectorField;
    location    "1";
    object      U;
}
// * * * * * * * * * * * * * * * * * * * * * * * * * * * * * * * * * * * * * //

dimensions      [0 1 -1 0 0 0 0];

internalField   nonuniform List<vector> 
18114
(
(0.06642119943677065 0.001020676975930499 0)
(0.06551828917349355 0.001811079678698191 -5.798865706838084e-30)
(0.06363404911886578 0.001976540627997605 -5.155351298049927e-30)
(0.06120681677148513 0.002048903477732737 -4.853944723266768e-30)
(0.05870233418595771 0.002099034076602206 0)
(0.05622469543353001 0.002117734391402514 0)
(0.05374707588865444 0.002103400634755708 0)
(0.05125862116137721 0.002065595084977316 0)
(0.04877739560266869 0.002010723173896121 -3.856709724354506e-30)
(0.0463248049583106 0.001943768085062842 -3.690028968956186e-30)
(0.04391417997490867 0.001869478537328613 3.524427408368178e-30)
(0.04154253295324128 0.001797815525101111 3.359580240582018e-30)
(0.03924234744963757 0.001680392840050802 -3.195771890449565e-30)
(0.03693833067978921 0.001499505889511991 -3.025231221032201e-30)
(0.03478544048607283 0.001324210730026446 0)
(0.03274368063921781 0.001159303334233914 2.679369962405065e-30)
(0.03081482300211565 0.001003772349137533 -2.521141921329804e-30)
(0.02901705999594825 0.0008563902560955858 0)
(0.02736101243558741 0.0007142536716094377 0)
(0.02584663563840991 0.0005817394577909749 0)
(0.02448102205143711 0.0004601381444831992 -1.997296627352165e-30)
(0.02326276948560716 0.0003518878732223231 -1.896088731794427e-30)
(0.0221839605715573 0.0002584277892996275 0)
(0.0212343167357583 0.0001786281638381721 0)
(0.0204068286752042 0.000111404250929153 1.665936607665819e-30)
(0.01969112829682626 5.588823121348394e-05 0)
(0.019075117325966 1.206886147794838e-05 0)
(0.0185497961133243 -2.284165261302612e-05 -7.641652717316076e-31)
(0.0181019767183036 -4.983476290281163e-05 -7.482564353723481e-31)
(0.01772245849301004 -6.986051174112673e-05 0)
(0.01739895421016915 -8.334561174448468e-05 0)
(0.01712575852799457 -9.171413822609971e-05 7.120987520383103e-31)
(0.01688955716140782 -9.523677923541809e-05 0)
(0.01668919050177397 -9.555351864113405e-05 0)
(0.01650910302011444 -9.286631509183315e-05 0)
(0.01635743225700483 -8.878450998172881e-05 0)
(0.01621034836190306 -8.242546509766959e-05 0)
(0.01609324966828058 -7.616447056316722e-05 1.626945209852892e-31)
(0.01595202190902964 -6.191877282400299e-05 1.595982650904839e-31)
(0.01588764929049655 -4.574305143315293e-05 0)
(0.06818465805133492 0.001323541701132117 0)
(0.0687559019046222 0.002192130588601729 -5.014574787592667e-30)
(0.06930707674399542 0.00250130980960633 1.519048561907205e-29)
(0.069425151197791 0.002632176400606417 4.838507647469111e-30)
(0.06937495016563941 0.002754562672800576 0)
(0.0692237721947334 0.002853663537431376 0)
(0.06896593193277976 0.002926168650656517 0)
(0.06860292877949697 0.002962161149097896 0)
(0.06814330828167943 0.002974983596895358 3.826601246938949e-30)
(0.06760195036932824 0.002974597422351294 3.658322346304936e-30)
(0.06698871459708909 0.002965941604546832 -3.49154150582476e-30)
(0.06631191140176974 0.002950537872546229 -3.325900203133842e-30)
(0.06558279829125246 0.002932208830833357 9.459006448672272e-30)
(0.06480443192222081 0.002903882389621231 -2.971359605080825e-30)
(0.06397793254216963 0.002851800550896733 -5.63378206554237e-30)
(0.06310357844177839 0.002774083249340184 -2.646478866669327e-30)
(0.06218909672589213 0.002673486752743101 2.489188733573586e-30)
(0.06124644399191958 0.002552269323969457 0)
(0.06028532493003067 0.002415438884982525 0)
(0.05931705818824745 0.002262532149765806 0)
(0.05833849068628168 0.002095205119671653 1.970124141197654e-30)
(0.05736410093832853 0.001923722877793981 5.717297536798979e-30)
(0.05640205578057442 0.001753807277818324 0)
(0.05546351052446361 0.001587435638118257 0)
(0.05455010440128302 0.001424739541497212 -1.643229449132472e-30)
(0.05367033454987556 0.001272155454708766 -1.636815605411356e-30)
(0.05281931815957389 0.001130439615592316 0)
(0.05200871240102751 0.001001707086339767 2.302375075334984e-30)
(0.05122849336064417 0.0008847215774090717 2.251849134522043e-30)
(0.05049351195489985 0.0007813624425715255 -1.483170709569287e-30)
(0.04978673404212546 0.00068934596057468 0)
(0.04912890308002635 0.0006105642041814153 -7.031002102277294e-31)
(0.04849321298576671 0.0005418110375061376 0)
(0.04790945820969942 0.000484839667730221 1.385275776500648e-30)
(0.04733721787682615 0.0004351535286861631 0)
(0.04682168430491698 0.0003947112372229988 6.705666936222445e-31)
(0.04630240820020921 0.0003595873809934378 0)
(0.04585280006619678 0.0003313305114651172 -1.607958990635099e-31)
(0.04536148348045363 0.0003093490721332464 -1.577579193341056e-31)
(0.04501660926384442 0.0002979703139302214 0)
(0.06811807436454938 0.0004715051917199295 0)
(0.06849551892413344 0.001177490983365465 -9.553514713956505e-30)
(0.06901291092646504 0.001638119688105358 -1.004826304882851e-29)
(0.06947954512551721 0.001990056918087234 -1.839295471962122e-29)
(0.06980898776714263 0.002252533016064551 0)
(0.07012121819130596 0.002485283023544923 -1.693008204563813e-29)
(0.07036031339436871 0.00265162371657641 1.623454336067667e-29)
(0.07062676635664232 0.002787856355705006 0)
(0.07081243147270022 0.002897897237688334 0)
(0.07094811331459516 0.002984061683241578 0)
(0.07105008237992937 0.00305113299695069 0)
(0.07111524552866211 0.003099701129313532 1.311031567984592e-29)
(0.0711475892128519 0.003131292952374411 -1.878414014492662e-29)
(0.0711437124133575 0.003122667176060741 1.784250428599082e-29)
(0.07110368198473165 0.003093708121711347 5.616460535450331e-30)
(0.07102364115535915 0.003037649561170189 -5.367980801032329e-30)
(0.07090477734495407 0.002961257603502333 -5.098400330383136e-30)
(0.07075021688825273 0.002863719342924457 -4.848037153189485e-30)
(0.07056422353529863 0.002749030862498399 0)
(0.07034889272538032 0.00262364504928948 0)
(0.0701045595700743 0.002491878620585932 -4.162798257453912e-30)
(0.06983199993674556 0.002356311018612504 -3.826722524466235e-30)
(0.06953331400059022 0.002218023691620777 0)
(0.06921181628104328 0.002077933883911092 0)
(0.06887090433914675 0.001942044046711887 0)
(0.06851442988305127 0.001813706661630196 1.626547492663128e-30)
(0.06814608833216812 0.001691186428572149 3.276488506960258e-30)
(0.06776985138631199 0.001574931243390145 -1.53808804717118e-30)
(0.06738856227815927 0.001466080114203543 -1.503142925292356e-30)
(0.06700633265245465 0.001365418111687724 1.472889161582579e-30)
(0.06662109525989188 0.001271488696407175 0)
(0.06624059007386962 0.001185611569396022 0)
(0.06585840938066133 0.001107142277982677 0)
(0.06548907431860682 0.001038479254868614 -2.776021066017591e-30)
(0.06511687780923585 0.0009759336880192519 0)
(0.06476305388859564 0.0009223359079520408 -6.655532963729129e-31)
(0.06439941255438549 0.0008726079475220007 0)
(0.06407206175831892 0.0008319183562712685 0)
(0.06370126026534205 0.0007898315907444688 3.173882445639677e-31)
(0.06344534162100833 0.0007581504696528001 0)
(0.0680670480325576 0.0003850018992946381 0)
(0.06826949422406495 0.001033610111198983 2.036970158813137e-29)
(0.06859446710036304 0.001487241063092544 -1.846139504534995e-29)
(0.0689450184894657 0.001813954730773825 3.615991553174152e-29)
(0.0692684360757924 0.002065372361973125 -1.711629163699111e-29)
(0.06957937722163654 0.002275575433437104 3.344890984262651e-29)
(0.06988838739963027 0.002447439193101431 -1.62395577825517e-29)
(0.07018199763186467 0.00258096774245074 1.530992053443475e-29)
(0.07046724949033112 0.002695440194546012 0)
(0.0707324911076927 0.002788667518647554 0)
(0.0709957074688996 0.002864324262305058 -1.359209738929537e-29)
(0.07123369211174647 0.002916906487797001 -1.31104079687228e-29)
(0.07147395985234727 0.002951521102211322 2.496604192508467e-29)
(0.07168562525557663 0.002963380918679346 -1.189414351940867e-29)
(0.07190087178713624 0.002951811531036514 0)
(0.07207753219418629 0.002921854459738514 5.365747790755585e-30)
(0.07227032636421553 0.002873310385562172 1.541074581674795e-29)
(0.07242394219266649 0.002809650923099314 4.844723628365043e-30)
(0.07254629085123558 0.002732505078633219 9.387088569435824e-30)
(0.07264383361209449 0.002642468692335626 0)
(0.07271511215907878 0.00254250893676077 4.158225402241721e-30)
(0.07275920011935012 0.002435384575917438 -8.169078482470363e-30)
(0.0727807864901896 0.002322589114970928 7.827736537567164e-30)
(0.07278102472517647 0.002206056260044041 7.519077118358055e-30)
(0.07276067939264942 0.002088354078817881 0)
(0.07272154223426283 0.001972586133793599 0)
(0.07266568130875715 0.001860960320307659 -6.660884078371887e-30)
(0.07259576244513768 0.001753214322714772 -3.296158864871344e-30)
(0.07251466764883996 0.001650426761889048 3.209762959845749e-30)
(0.07242447456394496 0.001554650566623438 0)
(0.07232629907891462 0.001466751670382109 -3.053946002001131e-30)
(0.07222095926330144 0.001386634046313398 -2.984693527586486e-30)
(0.07210928229614716 0.001312987049835359 0)
(0.0719931365668972 0.001245776496113756 1.397080943320893e-30)
(0.07187355703861716 0.0011850356210883 0)
(0.07175186225620045 0.001129887517544128 0)
(0.07162745615821479 0.001079621593358493 -1.34190672186477e-30)
(0.07150448373465594 0.001035491441425589 0)
(0.07137291292910833 0.000993452731083 -3.163735838111835e-31)
(0.0712706667803949 0.0009558236244278919 3.928293439572258e-32)
(0.06804245422632056 0.0002588594730479828 0)
(0.0681530149447956 0.0007370785273133185 1.812554558965655e-29)
(0.06836801416297503 0.001125425592211486 1.846517718955986e-29)
(0.06863041320365483 0.001435649192516508 -5.985901775953837e-31)
(0.06889670406963395 0.001689594381070921 1.712083527680439e-29)
(0.06915627385046427 0.001901804268501496 -1.651792399785989e-29)
(0.06942162874090647 0.00208179501111856 -1.557130001615233e-29)
(0.06968522755735641 0.002229659985970499 -1.531469395084687e-29)
(0.06995021646433741 0.002355389427108926 -1.450341222029078e-29)
(0.07021036166616267 0.002459218360236276 1.397663178720359e-29)
(0.0704734353354665 0.002544337568981959 1.359636334664268e-29)
(0.07073305885405984 0.002609295257276399 0)
(0.07099419598059729 0.002655859041070339 -1.246877325895696e-29)
(0.07125017072970245 0.002682631578993949 0)
(0.07150153041971063 0.002692197424829184 -1.139362601681571e-29)
(0.07173764927574865 0.002681819128693473 -1.090281124899939e-29)
(0.07196359755902659 0.002651704746376313 -2.074751097058679e-29)
(0.07217243470454887 0.002608587989980581 0)
(0.0723696196336187 0.002552509738784478 -9.388329040971641e-30)
(0.07254966897840734 0.002484285210768408 0)
(0.07271508639641371 0.002403093839795567 0)
(0.07285994899011779 0.002314438296214278 1.656580014388337e-29)
(0.07299011140171961 0.002217479709046807 -7.827282660868452e-30)
(0.07310054470709505 0.002118958801161442 2.442154652431203e-31)
(0.07319857259488298 0.002015284090362175 0)
(0.07327748217205683 0.001915221642159007 -7.233293254861434e-30)
(0.07335267322267128 0.001816453593317273 3.389744410977949e-30)
(0.07341383999778435 0.001720767117945696 3.295055235271977e-30)
(0.07345882319037197 0.001630177712616115 -3.208506930296362e-30)
(0.07349470506494821 0.001545354812605986 -3.219400100657185e-30)
(0.07352239244614896 0.001465400174577083 -8.393594031111077e-32)
(0.07354234218705168 0.001394019555886684 -7.720364995826334e-32)
(0.07355656800881084 0.001325092833842874 0)
(0.07356692655351948 0.001263304160828035 -2.923257234260142e-30)
(0.07357383190184898 0.001206352859673048 0)
(0.07357775817672398 0.001158200734157026 1.395460915727149e-30)
(0.07357870804503988 0.001110922834031078 -2.262653952589943e-32)
(0.07357704021109153 0.001072832571200904 -6.660259437521018e-31)
(0.07357130907784169 0.001032669001401343 0)
(0.07357187954691768 0.001001098289533072 -3.924499442692626e-32)
(0.06803403922594742 0.0002060484278419941 0)
(0.06810712758827128 0.0006055490903353946 -1.812711503938409e-29)
(0.06826081332145505 0.0009574622305071267 0)
(0.06846142226205836 0.00125168473073909 -1.716906727037889e-29)
(0.06867781599793001 0.001496716460829078 0)
(0.06889834017219745 0.001703292996760311 0)
(0.06912492604859019 0.001878671912843041 1.557473600800542e-29)
(0.06935565221788156 0.002025031474207577 0)
(0.06958868354734664 0.002146861512269721 -1.402470298813372e-29)
(0.06982141034247909 0.002246707151418898 -1.39802447306786e-29)
(0.070055015669058 0.002326986487953142 2.661241267121732e-29)
(0.07028861538890845 0.002388209912189836 0)
(0.07052191531424173 0.002431214113647091 2.46979154005025e-29)
(0.07075302832024898 0.002456115565633159 1.18763639189689e-29)
(0.07098138084553875 0.002463976525961105 1.139710741286373e-29)
(0.07120515150153371 0.002455564089233406 1.090616344272659e-29)
(0.07142277243694109 0.002432102750812799 1.043350160794275e-29)
(0.0716318138089828 0.002396397023296532 0)
(0.07183250385047407 0.00234939644067284 0)
(0.07202408624714708 0.002291539890701562 -9.300887200325439e-30)
(0.07220517066524594 0.002224224694608597 -8.934226374811333e-30)
(0.07237489220039919 0.002149341897220296 -8.398941033632194e-30)
(0.07253196426790352 0.002069045215734619 0)
(0.07267754042597804 0.001984200709576238 2.071488809665264e-31)
(0.07281006209016079 0.001898421280893305 0)
(0.07293064132547936 0.001811204526534661 7.23460116323861e-30)
(0.07303786214740003 0.001725479887977978 0)
(0.07313677839135374 0.001641174026361722 0)
(0.07322416867030064 0.00156337061255619 0)
(0.07330740529263563 0.001486599364616181 3.219718506790335e-30)
(0.07338000854679907 0.001417082035517211 -3.297648214863227e-30)
(0.07345280817738714 0.001350969479307519 3.060409746253669e-30)
(0.07351737379468067 0.001288445982044364 0)
(0.07357191975418359 0.00123012602844267 2.923289364342547e-30)
(0.07362273242584856 0.001176668544508842 0)
(0.07367243686245041 0.001128033769816288 -1.395422325334103e-30)
(0.07371652177045973 0.00108376819740733 2.749202781198391e-30)
(0.0737609554504975 0.001043733367030027 2.017857891431048e-30)
(0.07380491984368463 0.001006917643910618 0)
(0.07384638159325398 0.0009756520083351542 8.043292929999249e-32)
(0.06802897037120667 0.0001684269118876228 0)
(0.06807938215253964 0.0004984512523268018 3.31462609441984e-29)
(0.06819071573141859 0.0007998533257895105 0)
(0.06834498001984497 0.001061966776131259 0)
(0.06852135979586406 0.00128721361884832 0)
(0.06870850228335988 0.001480738862598222 3.057815873625063e-29)
(0.06890452756550119 0.001647606417379597 0)
(0.06910736398984385 0.001789554271056806 0)
(0.06931496476414652 0.001909216410292242 2.853741050275089e-29)
(0.0695246965124101 0.002008491214414708 -2.719900879849049e-29)
(0.06973616882284382 0.002089276479150005 -2.661826538642556e-29)
(0.06994812066062647 0.002152227404839322 -2.544083689769433e-29)
(0.07016017937613685 0.002198190695753526 -2.470376635386619e-29)
(0.07037047340971979 0.002227648697063213 1.181004516033988e-29)
(0.0705784810643288 0.002241453688850198 0)
(0.0707822437023351 0.002240379906431964 0)
(0.07098130176813441 0.002225356740599765 -2.116323312460365e-29)
(0.07117342532177928 0.002197934949120937 2.036871384114047e-29)
(0.07135887806261526 0.002159196083643804 0)
(0.07153626833877633 0.002110482836845618 2.817525353866278e-29)
(0.07170594727007275 0.002052704304960344 -1.503680882716612e-31)
(0.07186609912229225 0.001988025906809902 0)
(0.07201762686815372 0.001917432978730185 0)
(0.07215918827140573 0.001843145115318433 -1.612838375126509e-29)
(0.07229199285728194 0.001765975921098509 0)
(0.07241524524266886 0.001688305087369911 0)
(0.07253075112740612 0.001610712752068848 0)
(0.07263780709514188 0.001535561410377006 -7.173062354589059e-30)
(0.07273863222504758 0.001462657064216849 6.966572854968841e-30)
(0.07283265751950238 0.001393194945240119 0)
(0.07292210238255623 0.00132590423222466 1.302286215418166e-29)
(0.07300553814702077 0.00126350084343512 0)
(0.07308738486007331 0.001204897073836077 0)
(0.07316357984634421 0.001153351688586105 0)
(0.07323960131213675 0.001104244081092805 -2.964390033547948e-30)
(0.07330980107731024 0.001060923750777091 0)
(0.07338050613609359 0.001019346820508749 -1.38604969176242e-30)
(0.07344469893824908 0.000983234399120973 -2.723140571084095e-30)
(0.07351209475742546 0.0009478324160751378 0)
(0.07356870457079637 0.0009183672344074507 9.032097758600499e-34)
(0.06802617129831813 0.0001416740286075772 0)
(0.06806370451550341 0.0004207006079847768 -3.314759443736521e-29)
(0.06814880700490417 0.0006828811397111879 0)
(0.06827141609499193 0.0009188706974109861 3.109130620160016e-29)
(0.06841726986804528 0.001126974564805797 3.048958415172994e-29)
(0.06857692743834509 0.001308745982502926 -7.524134221575157e-31)
(0.06874732205917743 0.00146718713744242 -2.912461658640006e-29)
(0.06892598763389259 0.00160348977349089 0)
(0.06911103800834181 0.001719383689124736 -2.761174493651674e-29)
(0.06929973289189859 0.001816034567627388 2.72037035820829e-29)
(0.06949124011426042 0.001895035767936388 -2.602452132164351e-29)
(0.06968383018742481 0.001957082096711136 2.544565961636728e-29)
(0.06987721358367238 0.002003144494735395 2.441152021983732e-29)
(0.07006939065051219 0.002033776475641766 -8.694279989551606e-32)
(0.07026011419834401 0.002049854452373427 0)
(0.07044724425003553 0.002052159472280575 -2.202742744013662e-29)
(0.07063078914144906 0.002041609426421058 2.11678595698016e-29)
(0.07080857859107678 0.002019497101031614 -4.088948036885239e-29)
(0.07098117260666123 0.001986857638024167 0)
(0.07114668669948671 0.001945124360478968 -1.887611753602229e-29)
(0.07130600949107037 0.001895039204410972 2.75259792331759e-29)
(0.07145703833886194 0.001838456267597559 0)
(0.07160106247707408 0.001776131117780793 1.72018071114541e-29)
(0.07173633301072518 0.001710219831799161 8.156783732956642e-30)
(0.07186469438666718 0.001641306880706372 0)
(0.07198463328828465 0.001571722659541246 0)
(0.07209851375598794 0.001501540031344141 7.557522461887845e-30)
(0.07220475199984276 0.001432981745596011 1.450736020743145e-29)
(0.07230627083517101 0.001365576069884343 1.522342065765071e-31)
(0.07240124219377671 0.001301408566815492 0)
(0.072493224661812 0.001239156676621399 -6.588592448327778e-30)
(0.0725792285888256 0.001181645194777882 0)
(0.07266377012666679 0.001126868033710459 6.364782210980249e-30)
(0.07274290762143798 0.001077638831631243 3.096994010431093e-30)
(0.07282247702417004 0.001030481082413392 2.964982584329388e-30)
(0.07289687520692253 0.0009885756813253449 -2.933390117858127e-30)
(0.07297274452432004 0.0009485340222936249 0)
(0.07304238407562579 0.0009138214460451536 -1.788697411589404e-32)
(0.07311644701358079 0.0008802034886348352 0)
(0.07317760680978562 0.0008518300218705452 -8.13617473279618e-32)
(0.06802442684412126 0.0001214223576570465 0)
(0.06805385732508451 0.0003611194159522181 0)
(0.06812125755016175 0.0005897868608915803 0)
(0.06822054353801162 0.000799925720305966 -3.109349232548968e-29)
(0.06834200113291802 0.0009886878926824126 -3.049224666552735e-29)
(0.0684783719768239 0.001155829030332924 -5.896806067266427e-29)
(0.06862663194269324 0.001303076985902568 5.764728639306753e-29)
(0.06878410687978645 0.00143103399873725 0)
(0.06894904662661595 0.001540917670756739 2.761554541393032e-29)
(0.06911874190231088 0.00163332881618268 2.646164447404721e-29)
(0.06929225872114113 0.001709570831738628 2.936293980600718e-31)
(0.06946758701397525 0.001770170240745937 0)
(0.06964444001797492 0.001816074393785304 -1.589310744241664e-31)
(0.06982073994107688 0.001847746157554239 -2.361133597231711e-29)
(0.06999640900112268 0.001866030680351145 0)
(0.07016928450660113 0.001871627240010183 4.408089541466654e-29)
(0.0703396247155598 0.001865400115310943 0)
(0.07050525821921867 0.001848430759941744 2.052018391623491e-29)
(0.07066688839247343 0.00182158029794905 0)
(0.07082243390697504 0.001786183770376751 0)
(0.07097302066483448 0.0017429011483797 -3.71041205388545e-29)
(0.07111649677768937 0.001693455710792851 0)
(0.07125442903566341 0.001638425192357465 2.683955441127628e-31)
(0.07138478185687483 0.001579872352630535 0)
(0.07150967245777849 0.001518083258262597 0)
(0.07162710297660427 0.00145531748323325 1.588879429677345e-29)
(0.07173973756266507 0.00139137323620804 -1.52646265243017e-29)
(0.07184547048436978 0.001328625151674471 -7.334114077732579e-30)
(0.07194754604043317 0.001266339910622865 1.396601546306389e-31)
(0.07204348664827687 0.001206940939065603 7.053473658765478e-30)
(0.07213713104283137 0.001148927720588146 6.854039049517217e-30)
(0.07222511078011506 0.001095019372382654 0)
(0.07231200948851201 0.001043102101978558 -6.365906526128824e-30)
(0.07239367872314723 0.0009960889812633184 -3.097534875299541e-30)
(0.07247569810567775 0.0009511636733771305 0)
(0.07255264315014856 0.0009112999732592601 2.933891238711509e-30)
(0.07263099928274235 0.0008734015675879943 0)
(0.07270318980175824 0.0008406322654762364 1.389442356280876e-30)
(0.07277940958363054 0.0008092883363050018 0)
(0.07284347395665405 0.0007827481574304399 0)
(0.06802321718818892 0.0001053145658987488 3.004185798272331e-29)
(0.06804706363348283 0.0003134319937946274 0)
(0.06810195992773914 0.0005137518704714718 0)
(0.0681839993447389 0.0007005755199019139 -2.940892331981635e-29)
(0.06828644177489869 0.0008710803934226831 2.898295947072934e-29)
(0.06840378959109099 0.001024053764978867 2.913788065139472e-29)
(0.06853342836390959 0.00116028192168985 -2.852205054509999e-29)
(0.06867272118451362 0.001279783318483469 0)
(0.06882005347517745 0.001383371442830472 0)
(0.06897284723913011 0.001471220382430203 -2.64649678123955e-29)
(0.06913018185985494 0.001544342712278535 2.573836678944318e-29)
(0.06928995666027515 0.001603054473291865 0)
(0.06945187441845317 0.00164822425350538 -2.426029405458343e-29)
(0.06961386608682828 0.001680219415146574 0)
(0.06977595122105942 0.001699842779654446 0)
(0.06993601297915933 0.001707701362204032 -2.205295615105855e-29)
(0.07009443392993496 0.001704588893687035 0)
(0.07024908149124287 0.00169143583775188 -2.072960096683352e-29)
(0.07040075612676067 0.001668994799127796 0)
(0.07054734856095989 0.001638505035373058 0)
(0.07069009928473879 0.001600572183266858 1.866683382669794e-29)
(0.07082685214582569 0.001556786035148898 0)
(0.07095929151179614 0.001507593483901559 -1.747660766563849e-29)
(0.07108525886723759 0.001454908769283062 1.717358222596364e-29)
(0.07120696470400051 0.001398873814848657 0)
(0.07132220370127812 0.00134164134963278 -1.589149805438234e-29)
(0.07143372223611266 0.001282926406723083 2.33877812894232e-29)
(0.07153914140895738 0.001225047365169686 1.522268050366306e-29)
(0.07164174312499962 0.00116719496049137 -1.465350776524217e-29)
(0.07173875288485142 0.001111785844940093 1.239088191476342e-31)
(0.07183401312035081 0.001057395573578057 -6.855138516304113e-30)
(0.07192405717369921 0.001006637874423643 0)
(0.07201339974926665 0.00095760984505377 0)
(0.07209779854428454 0.0009130609008795766 0)
(0.07218258861745447 0.0008705403907203643 6.209679994130281e-30)
(0.07226237086390097 0.0008327745234793234 0)
(0.07234349160194922 0.000796997209246464 -2.928001553417275e-30)
(0.07241847962665635 0.0007661140544951459 0)
(0.07249725617039579 0.0007369146879659997 0)
(0.0725643348278882 0.0007122579209192475 0)
(0.06802233885000891 9.211440771229649e-05 -3.004203429486449e-29)
(0.06804214912981774 0.0002742723056220119 0)
(0.06808789794087715 0.0004506249375450739 0)
(0.0681569096773111 0.0006168028957805463 2.941027113904646e-29)
(0.06824432093358578 0.0007702772610906193 -2.898465970219414e-29)
(0.06834596761204217 0.0009094267474167867 0)
(0.06845973973460232 0.001034449122138932 0)
(0.06858324176084615 0.001144981787382026 2.691283431508184e-29)
(0.06871501680630693 0.001241541801495795 0)
(0.06885268956140597 0.00132403780942295 -2.578059881206909e-29)
(0.06899539102989416 0.001393239629220536 -2.518057202906483e-29)
(0.0691410728330302 0.001449294589254042 2.456548493711675e-29)
(0.06928942213880963 0.001492961211834905 -2.394036216539646e-29)
(0.06943844630021687 0.001524513299788839 0)
(0.06958819613221781 0.001544678554156934 0)
(0.06973665478334848 0.001553964192415922 0)
(0.06988424311121282 0.001553084718234775 2.142252461582802e-29)
(0.07002892927848058 0.001542844783184927 -7.379298241027717e-32)
(0.07017153627247344 0.001523914544869806 0)
(0.07031002655890112 0.001497408174398431 0)
(0.07044564333691508 0.001463873741262636 1.903312963410973e-29)
(0.0705763022577255 0.001424745384676882 0)
(0.070703678767067 0.001380400186475671 0)
(0.07082563725298725 0.001332580695997888 -3.457925454702414e-29)
(0.07094434271938285 0.001281386828703242 -1.689449854335805e-29)
(0.07105756099513512 0.001228804688075579 -1.640300334822915e-29)
(0.07116795580579352 0.001174552596324851 -1.568319799502371e-29)
(0.07127307598572388 0.001120790651431386 -1.5224969028826e-29)
(0.07137608986429737 0.001066775725059639 7.392119746928244e-30)
(0.07147415464919457 0.001014796948084936 -7.179582988539433e-30)
(0.07157097582795664 0.000963616912293255 0)
(0.07166309634328574 0.0009156711325134948 0)
(0.07175484375452357 0.0008692882544954699 -6.679063294727312e-30)
(0.07184197898555109 0.0008269856846610072 -6.483256445760835e-30)
(0.07192959152641054 0.0007866568696809289 -1.250223118677068e-29)
(0.07201236806868606 0.0007508185750145057 0)
(0.07209646651655344 0.0007170826163022129 -3.208860816342295e-32)
(0.07217453714662971 0.0006880852066302544 -2.87087287592997e-30)
(0.07225624977811576 0.000661080202791113 -1.39212752247572e-30)
(0.07232651061552377 0.00063835727891809 -1.686385919923377e-31)
(0.06802167570999273 8.106280887385309e-05 0)
(0.06803844564144557 0.0002414319712971178 0)
(0.06807725008747441 0.0003972775508508665 0)
(0.06813615734729894 0.0005451870123351418 5.611309565597297e-29)
(0.068211521658171 0.0006829884666248747 0)
(0.06830017649639357 0.0008090072461871059 -5.473974609506006e-29)
(0.06840046884869928 0.0009231032734749785 -5.390013168479129e-29)
(0.06851033266460484 0.001024700029075442 2.606171108678266e-29)
(0.06862845834603441 0.001114066074694287 -5.198442111589376e-29)
(0.0687527250716406 0.001190949450334081 2.578304622765594e-29)
(0.06888229945411702 0.001255896020877242 2.518313962384962e-29)
(0.06901529043261852 0.001308926197521045 -2.456814661381095e-29)
(0.06915134392720766 0.001350655910587257 4.772947937022057e-29)
(0.06928861495426593 0.001381272308734483 0)
(0.06942712633181185 0.001401403407532017 -2.261840393119755e-29)
(0.06956502009335835 0.001411464670175961 2.20318767370032e-29)
(0.06970269045412447 0.001412085825461823 -2.142533571769631e-29)
(0.06983826067355567 0.001403958486440453 -6.006280710926739e-32)
(0.06997251052966678 0.001387681668308615 0)
(0.07010354085739076 0.001364240766396749 0)
(0.07023253404846741 0.001334137802948107 -1.903578327697503e-29)
(0.0703575365468115 0.001298658644350958 0)
(0.07048014379680333 0.001258148593465562 0)
(0.07059832323344686 0.001214181407211278 1.740545606546579e-29)
(0.07071411995627333 0.001166856198309373 1.689686616518988e-29)
(0.07082536668474627 0.00111798373011487 1.640529051836728e-29)
(0.07093457421045848 0.001067328144095626 1.615646773909532e-29)
(0.07103933333074398 0.001016880198509341 0)
(0.07114263395379467 0.0009660095936794058 1.524679387046244e-29)
(0.07124167218292549 0.0009168458378851511 0)
(0.07133995156563604 0.0008683418356829309 0)
(0.07143408493279498 0.0008227439845295643 -6.978033193341167e-30)
(0.0715281649469211 0.0007786225501818914 6.67992471724179e-30)
(0.07161803823064317 0.0007382895077381801 -8.39616315067709e-32)
(0.07170852736188366 0.0006999667542970318 6.292488330880874e-30)
(0.07179445074189872 0.0006659604590635188 0)
(0.0718817025538981 0.0006342393803382955 -2.947952470028007e-32)
(0.07196309482702867 0.0006071494459473775 5.767468173989937e-30)
(0.07204797634686214 0.0005823903986431329 1.392289889682665e-30)
(0.07212171432553498 0.0005616915558014045 1.686578354048422e-31)
(0.06802115803252309 7.165032746578308e-05 5.574685938116346e-29)
(0.06803556204017178 0.0002134335376597751 -5.567434166468424e-29)
(0.06806893239537132 0.0003515386802992969 0)
(0.06811983679839308 0.0004833096777191033 -1.110839394170086e-28)
(0.06818541623597012 0.0006068409272199 0)
(0.06826327732711848 0.0007206245924961347 5.474255376032371e-29)
(0.06835207793868681 0.000824262804558722 1.069235625034795e-28)
(0.06845016020455674 0.0009171460357931451 -5.298029381409732e-29)
(0.06855626952881483 0.0009992779167561656 6.862432416662313e-31)
(0.06866866664277659 0.001070389475783969 0)
(0.06878642746110801 0.001130771254274473 -4.936097807728361e-29)
(0.0689080024812761 0.00118041379166424 0)
(0.06903284845398883 0.001219744018859629 -2.378879990258932e-29)
(0.06915945929631773 0.001248912263022025 0)
(0.06928765113484388 0.001268415678121504 6.268734952008414e-32)
(0.06941590311707641 0.001278603047324531 -2.229222861795874e-32)
(0.06954441562664418 0.001280016813778691 2.146601888333479e-29)
(0.06967160178963291 0.001273243933142487 2.087187340789835e-29)
(0.06979809197915207 0.001258818303232222 0)
(0.0699222176008466 0.001237602019319841 -1.985032472530923e-29)
(0.07004501495050784 0.001210062239737266 0)
(0.07016473729087305 0.00117734377604446 0)
(0.07028281977666899 0.001139783321057459 0)
(0.07039741595342461 0.0010987862528255 0)
(0.07051037691473316 0.00105447950440663 0)
(0.07061970423470025 0.0010084906393087 0)
(0.0707276744263933 0.0009606714162901038 2.118618744529739e-31)