/*--------------------------------*- C++ -*----------------------------------*\
| =========                 |                                                 |
| \\      /  F ield         | OpenFOAM: The Open Source CFD Toolbox           |
|  \\    /   O peration     | Version:  2206                                  |
|   \\  /    A nd           | Website:  www.openfoam.com                      |
|    \\/     M anipulation  |                                                 |
\*---------------------------------------------------------------------------*/
FoamFile
{
    version     2.0;
    format      ascii;
    arch        "LSB;label=32;scalar=64";
    class       volVectorField;
    location    "1";
    object      U_0;
}
// * * * * * * * * * * * * * * * * * * * * * * * * * * * * * * * * * * * * * //

dimensions      [0 1 -1 0 0 0 0];

internalField   nonuniform List<vector> 
18114
(
(0.06642119974983164 0.00102067598782697 -6.749171482300705e-30)
(0.06551829101799637 0.001811079012135907 -5.796900586109065e-30)
(0.06363405428140424 0.001976539101721249 5.153378240129811e-30)
(0.06120682665567539 0.00204890099405851 0)
(0.05870235006475115 0.002099030707098455 0)
(0.05622471863556335 0.002117730438873398 4.421862862953184e-30)
(0.05374710732422162 0.002103396231499327 -4.214170832562856e-30)
(0.05125866133706505 0.002065590339163596 4.026666429580802e-30)
(0.04877744511607137 0.002010718074452879 -3.854622283458389e-30)
(0.04632486468099752 0.001943762376801161 -3.68791175443197e-30)
(0.0439142515584638 0.001869471475579646 -3.522277469989111e-30)
(0.04154261740573122 0.001797808214263373 0)
(0.03924244816255573 0.001680385495095575 3.193547585258223e-30)
(0.03693844793451478 0.001499496995276689 -3.022965702833656e-30)
(0.03478557782304245 0.001324200323671428 0)
(0.03274384050719231 0.001159291674212479 2.677014798202906e-30)
(0.0308150082410773 0.00100375991850629 2.518738585436048e-30)
(0.02901727243348898 0.0008563775985440044 -2.370561732844888e-30)
(0.02736125402285814 0.0007142411604926578 0)
(0.02584690753948992 0.0005817273387648842 0)
(0.02448132464971015 0.000460126489540108 -1.994679579177935e-30)
(0.02326310311052188 0.0003518762762694664 -1.893413400703724e-30)
(0.02218432692239794 0.0002584167420445897 0)
(0.02123471419123654 0.0001786176905474655 0)
(0.02040725844479852 0.0001113934391743551 -1.663075661221969e-30)
(0.01969159082718237 5.587714325994367e-05 0)
(0.01907561237618179 1.205844335809699e-05 7.816043377406138e-31)
(0.01855032473490796 -2.28514506868621e-05 -7.626354812787084e-31)
(0.01810253892631995 -4.984360883376477e-05 -7.466926756059854e-31)
(0.01772305478497749 -6.986834048215506e-05 7.331372690350743e-31)
(0.01739958532036561 -8.335241284122137e-05 0)
(0.01712642530324642 -9.172028196399445e-05 7.104323240437003e-31)
(0.01689026104351908 -9.524246159068624e-05 0)
(0.01668993289217246 -9.555879004616683e-05 0)
(0.01650988541995997 -9.28712825847e-05 0)
(0.01635825660985791 -8.87891064037005e-05 0)
(0.01621121525592298 -8.242987844934077e-05 0)
(0.01609416134073793 -7.616860753644218e-05 0)
(0.01595297892292189 -6.192247230233741e-05 -1.591257759887822e-31)
(0.01588865409518293 -4.574563752756524e-05 0)
(0.06818465862613558 0.001323541043388587 6.749762170065332e-30)
(0.0687559015611512 0.002192125862650769 5.791044141981633e-30)
(0.06930708230352575 0.002501302970483089 -5.142372331560946e-30)
(0.06942516147793774 0.002632168388149979 0)
(0.06937496575939456 0.002754553303472457 0)
(0.06922379442112808 0.002853651692336033 -4.399047910287059e-30)
(0.06896596162614195 0.002926156367340363 4.188504594216936e-30)
(0.06860296633377132 0.00296214792056431 3.929160319625161e-30)
(0.06814335433612831 0.002974969100396073 3.824530121989862e-30)
(0.06760200542970883 0.00297458126547527 1.09323976332911e-29)
(0.06698877965182129 0.002965923401862831 3.489411654598677e-30)
(0.06631198729276627 0.0029505171121669 0)
(0.06558288641352075 0.002932184765383848 -3.159452242801394e-30)
(0.06480453383460587 0.002903854707490695 2.988884953201297e-30)
(0.06397804995913549 0.002851768905234823 0)
(0.0631037133689849 0.002774047518118437 -2.644152665194327e-30)
(0.0621892515944308 0.002673447071765764 -2.486815914239317e-30)
(0.06124662138762246 0.002552226040660075 2.339733032833522e-30)
(0.0602855279859593 0.002415391957174677 4.497175616456518e-30)
(0.05931728936846908 0.002262482809182351 0)
(0.058338755725057 0.002095154227317722 1.96754275593324e-30)
(0.0573644011099862 0.001923669453923617 -1.974372712578994e-30)
(0.05640239545797857 0.001753752292619609 0)
(0.05546388933407673 0.001587380974790703 3.512461968571361e-30)
(0.05455052638568375 0.00142468386511993 1.640407532497659e-30)
(0.05367080435098603 0.00127209862211276 1.633931773221028e-30)
(0.05281983815356614 0.001130381160403197 -7.711103628377681e-31)
(0.0520092865496833 0.00100164707302915 2.297848402574532e-30)
(0.05122912328013519 0.0008846595634898575 7.368818511391486e-31)
(0.05049420196171465 0.0007812983981594121 -7.236233211531612e-31)
(0.04978748547685947 0.0006892793956329852 1.452790236892605e-30)
(0.04912972018189983 0.0006104948881267369 7.265325166733776e-31)
(0.04849409783222812 0.0005417382895485288 1.404310575572565e-30)
(0.04791041651123173 0.000484763847600285 0)
(0.04733825115886145 0.0004350738173602707 0)
(0.04682279915138811 0.0003946289668056409 0)
(0.04630360490591962 0.0003595019223302845 0)
(0.04585408590082753 0.0003312422774787502 0)
(0.04536285966537017 0.0003092560178617472 1.572908566425204e-31)
(0.04501808341185942 0.0002978724999232697 0)
(0.06811807474748022 0.0004715036339840916 2.099638561711775e-29)
(0.0684955201734917 0.001177484942560704 0)
(0.06901291453907756 0.001638109676972406 0)
(0.0694795525245363 0.001990043333326483 0)
(0.06980900060861539 0.002252517218431482 1.761972441014348e-29)
(0.07012123726476198 0.002485264741341587 1.692211367243949e-29)
(0.07036033955293701 0.002651604100476558 0)
(0.07062679890656332 0.002787835331672392 -7.920909311922964e-30)
(0.07081247325329421 0.002897874473968005 1.493951569193266e-29)
(0.07094816262874432 0.002984037574828236 -7.265599910039307e-30)
(0.07105013893661456 0.003051104042338719 0)
(0.07111530985532517 0.003099672111817536 -1.310173479842124e-29)
(0.07114766142660753 0.003131257275413188 -1.249321731106782e-29)
(0.07114379218642491 0.003122629858468258 0)
(0.0711037706912636 0.003093664627167504 0)
(0.0710237397204183 0.003037600058510349 0)
(0.07090488684227611 0.002961202150752938 0)
(0.07075033859004103 0.002863658350932571 0)
(0.07056435882485336 0.002748964292142237 -4.477373357779001e-30)
(0.07034904359148451 0.002623572535429633 0)
(0.07010472850572053 0.002491800572554877 0)
(0.06983218957713208 0.002356226130708879 3.821482040780931e-30)
(0.0695335267483102 0.002217937923423204 0)
(0.06921205505541256 0.002077844992602689 -3.491978928516926e-30)
(0.06887117207841027 0.001941943486839447 0)
(0.06851472863402368 0.00181360076493296 -4.997347527647585e-30)
(0.06814642059083531 0.001691076110118596 0)
(0.06777021963181991 0.001574816716257356 -1.535091018618509e-30)
(0.06738896898731157 0.001465960568968144 -3.101861670067102e-30)
(0.0670067799467393 0.001365293618139505 0)
(0.06662158737912072 0.001271360564280641 -1.442540780782865e-30)
(0.06624113028209604 0.001185477447027703 -1.417758327710501e-30)
(0.06585899828353774 0.001107000602658073 -2.818290532085542e-30)
(0.06548971815650778 0.001038330389529917 1.397514012586966e-30)
(0.06511757754753056 0.0009757762455459148 0)
(0.06476381620905913 0.0009221710128020196 -1.346066379538928e-30)
(0.06440023752522142 0.0008724350801857832 0)
(0.06407295499059278 0.0008317390234480384 0)
(0.06370222395700303 0.0007896436278394866 0)
(0.06344637949305978 0.0007579551554731196 0)
(0.06806704828183399 0.0003849996754179524 -4.039885597110854e-29)
(0.06826949551869098 0.001033602502555532 1.908897055218306e-29)
(0.06859447023378611 0.001487227776945986 0)
(0.06894502576808011 0.001813937364495628 1.775282143522763e-29)
(0.06926844786002528 0.002065351061284564 -1.762584346869453e-29)
(0.06957939534019539 0.002275551370170539 -3.343301162100026e-29)
(0.06988841135597655 0.002447412517745117 0)
(0.07018202930661038 0.00258093965182915 -1.530183719460198e-29)
(0.07046728689020679 0.002695409916650413 -1.494289072861919e-29)
(0.07073253629545198 0.00278863603812878 1.415150363484171e-29)
(0.0709957579057202 0.002864290346879999 0)
(0.07123374940209858 0.00291687012628004 8.402166015178343e-32)
(0.0714740220025387 0.00295148076257849 3.570821381063198e-32)
(0.07168569341403028 0.00296333657945204 0)
(0.07190094432332805 0.002951761488305088 0)
(0.07207761198645979 0.002921798430239332 0)
(0.07227040896285375 0.002873247586985251 -1.030577752527854e-29)
(0.07242403429169166 0.002809582177673905 0)
(0.07254639131856608 0.002732428314899955 9.377339424325815e-30)
(0.07264394346847207 0.002642384625434781 -8.940486183922007e-30)
(0.07271523277704565 0.002542417335007438 -8.533126734437036e-30)
(0.07275933276391487 0.002435285568370618 -8.158671074347615e-30)
(0.07278093138142964 0.002322483870646356 0)
(0.07278118480085076 0.002205945064630068 0)
(0.07276085595875047 0.002088236527674883 0)
(0.07272173588239943 0.001972461555428542 6.861098063654912e-30)
(0.07266589303418421 0.001860828819188467 0)
(0.07259599341853805 0.001753076951880196 3.290191850771325e-30)
(0.07251491843384038 0.001650282731612197 3.095124445557139e-30)
(0.07242474638879491 0.001554498652378708 0)
(0.0723265940219298 0.001466591157292866 0)
(0.07222127965510237 0.001386464975511645 0)
(0.07210962974194643 0.001312808760478152 4.334526143266512e-30)
(0.07199351240486555 0.001245588343573204 3.284356156523037e-32)
(0.0718739627608655 0.001184835055557569 0)
(0.07175230006061552 0.001129682578906517 1.342118920005357e-30)
(0.07162792875736927 0.001079406388375555 1.338319544171539e-30)
(0.07150499358919027 0.001035263047011438 -6.548806009423872e-31)
(0.07137346354289412 0.0009932129926084959 0)
(0.07127125836105573 0.0009555633277706073 3.916528553303549e-32)
(0.06804245444362006 0.0002588564594075929 1.940086477632602e-29)
(0.06815301630678086 0.0007370692557675519 -1.909186324105505e-29)
(0.06836801733810031 0.001125409081143738 0)
(0.06863042075010264 0.001435627494302852 -1.775708360532204e-29)
(0.06889671581654656 0.001689567223639244 0)
(0.06915629234406168 0.001901774054928072 3.260331445325952e-29)
(0.06942165236839626 0.002081761382738075 1.55633534217222e-29)
(0.06968525915182776 0.002229625240770715 1.530660813111871e-29)
(0.06995025279968252 0.002355352534899372 -1.449528547644145e-29)
(0.07021040578886689 0.002459180780176576 -1.876106500378746e-31)
(0.07047348306216883 0.002544297684189837 0)
(0.07073311364499441 0.002609253549159867 1.302176673114535e-29)
(0.07099425319533983 0.002655813820734582 1.246009194571378e-29)
(0.07125023452803243 0.002682582098461462 0)
(0.07150159591717797 0.002692142533267816 -1.138468136045017e-29)
(0.0717377218004397 0.002681757866209731 0)
(0.07196367132923441 0.002651636760676416 1.030784079655664e-29)
(0.07217251638183883 0.002608511342976207 0)
(0.07236970289630085 0.002552425998411543 -9.378578690427953e-30)
(0.07254976243899787 0.00248419172075039 -1.888907918051052e-31)
(0.0727151818522153 0.002402995003540691 8.533491206669039e-30)
(0.07286005749059676 0.002314328392558808 8.158616113895522e-30)
(0.0729902227486719 0.002217366958577344 8.055330893227908e-30)
(0.0731006721504537 0.002118833235908851 0)
(0.07319870352198735 0.002015158281319306 -7.474208644523289e-30)
(0.07327763083224448 0.001915083021709189 -3.492693415963924e-30)
(0.07335282157967184 0.001816309536269826 0)
(0.07341400810800748 0.001720614858041316 -1.008068071753388e-29)
(0.07345900482366473 0.001630018593433106 6.603692345665265e-30)
(0.07349489988972301 0.001545186581734788 0)
(0.07352260171050601 0.001465222296155664 0)
(0.07354256579068282 0.001393832271884255 0)
(0.07355680518590071 0.00132489761418276 -2.912334700414757e-30)
(0.07356717724805376 0.001263097346346064 -1.425592682824583e-30)
(0.07357409710495165 0.001206133248800705 2.84939524221045e-30)
(0.07357803861046563 0.001157967348884415 -1.39193688417191e-30)
(0.07357900528831042 0.001110679351542089 2.262122649944471e-32)
(0.07357735651666192 0.001072575263676605 6.543136189329576e-31)
(0.07357164549516179 0.001032399229866887 0)
(0.07357223430303099 0.00100081633079106 -3.912746349727407e-32)
(0.06803403942978187 0.0002060448886796878 3.477009538666277e-29)
(0.06810712887768626 0.0006055381451998238 0)
(0.06826081666133094 0.0009574429151465775 3.394736453594284e-29)
(0.06846142965049631 0.001251658754893801 3.313151136591177e-29)
(0.06867782795468529 0.001496684301060012 0)
(0.06889835830932549 0.001703256812570948 -1.609659798531247e-29)
(0.06912494993488644 0.001878632375093855 -1.556678769794623e-29)
(0.06935568300936125 0.002024990400612001 2.947385178712694e-29)
(0.06958871999717212 0.002146819013779852 1.44988610670916e-29)
(0.06982145312152779 0.002246663928217515 -1.397200826865194e-29)
(0.070055063220852 0.002326941892414139 0)
(0.07028866818123547 0.00238816361445801 0)
(0.07052197203849497 0.002431164965015778 0)
(0.07075308930440359 0.002456062561952371 1.186764454215111e-29)
(0.07098144539989688 0.002463918347093221 -1.468808916195113e-32)
(0.07120521952655194 0.002455499622240881 0)
(0.07142284447894587 0.002432030876001307 0)
(0.07163188909218723 0.002396317179641466 1.00843620247557e-29)
(0.07183258432966722 0.002349307753580511 0)
(0.07202417009616868 0.002291442847823754 9.132784146119697e-30)
(0.07220526105066451 0.002224118363679901 0)
(0.07237498696486788 0.002149227617208233 8.579941610553596e-30)
(0.07253206688905109 0.002068921973497094 -8.057265896166244e-30)
(0.07267764905793456 0.001984070385197385 0)
(0.07281017844315581 0.001898281892951719 -2.09461892929737e-31)
(0.07293076830079291 0.00181105618506024 0)
(0.07303799466288684 0.001725326399559057 0)
(0.07313692237119614 0.001641009072394152 1.377749073222845e-29)
(0.07322431743342694 0.001563199607997131 -6.604489136477208e-30)
(0.07330756536817305 0.001486418109509521 0)
(0.07338017281953822 0.001416892031485586 6.421518933302488e-30)
(0.07345297998478058 0.001350770637095718 3.128775473554764e-30)
(0.07351756400968548 0.001288237984166946 3.052720945885694e-30)
(0.0735721194275345 0.001229907360124165 -2.978548534788124e-30)
(0.0736229391194296 0.001176438944533583 -2.849371131082294e-30)
(0.07367265765362595 0.001127792514288589 1.39189843352291e-30)
(0.07371674376524556 0.001083516919208472 -1.359785701049273e-30)
(0.07376120109904508 0.001043458217199081 0)
(0.07380515133251467 0.00100664848305253 -6.577655880390898e-31)
(0.07384665050741304 0.0009753536479918787 -4.009821852847461e-32)
(0.06802897057023162 0.0001684228348341325 -3.477075131818564e-29)
(0.06807938337313064 0.0004984383903556901 0)
(0.06819071917971875 0.0007998309753683448 -3.395054607831394e-29)
(0.06834498732057563 0.00106193627098781 -6.519525673343838e-29)
(0.06852137195594872 0.001287176137444913 0)
(0.06870852028751806 0.001480696419268146 0)
(0.06890455169400338 0.001647560594372048 -2.975525673429111e-29)
(0.06910739445315214 0.001789506700050675 -5.839495728666509e-29)
(0.06931500125605017 0.001909167965814839 -2.805473684422476e-29)
(0.06952473860585236 0.002008442322830467 -2.718281896056187e-29)
(0.06973621600689986 0.002089226924185311 2.630491252179057e-29)
(0.06994817231651944 0.002152176511387012 2.542414093792783e-29)
(0.07016023515655559 0.002198137422008315 0)
(0.07037053280818574 0.002227591739800183 -3.554256098856335e-29)
(0.07057854413310605 0.002241391699020254 3.421673685153449e-29)
(0.07078231007113117 0.002240311583430985 0)
(0.07098137213302834 0.00222528093870963 2.11448728659704e-29)
(0.07117349921103057 0.002197850871943363 -3.04369985855198e-29)
(0.07135895698945 0.002159102943740343 0)
(0.07153635124982365 0.002110380713838219 -1.885223495792378e-29)
(0.0717060365965167 0.002052592655204296 0)
(0.07186619313765689 0.001987905611461731 -8.582266232955081e-30)
(0.07201772847656968 0.001917303463870722 0)
(0.07215929538801162 0.001843007857191551 0)
(0.07229210831283829 0.001765829980436631 1.555947746969054e-29)
(0.0724153669461521 0.001688151828269988 0)
(0.07253088017376588 0.001610551418803338 0)
(0.07263794329608243 0.001535391640622084 -6.986626900846428e-30)
(0.07273877459562028 0.001462479590787449 6.954430393122191e-30)
(0.07283280645790724 0.001393009727154928 0)
(0.07292225848614756 0.001325709885435291 -1.299741485202597e-29)
(0.07300569842554355 0.001263296808792854 3.270047504840137e-30)
(0.07308755123131201 0.001204680631080415 6.321069092392766e-32)
(0.07316375037387492 0.001153125180644039 2.979120030814202e-30)
(0.07323977835262911 0.001104005761162082 2.95745283246266e-30)
(0.07330998414596282 0.001060674392495131 -2.881108646364833e-30)
(0.07338069654975295 0.001019084570179306 0)
(0.07344489555388181 0.0009829599867336252 0)
(0.07351229683097682 0.0009475450728819387 6.578584837309341e-31)
(0.07356891389452376 0.0009180661421962119 4.010349394610277e-32)
(0.06802617150433216 0.0001416694314404501 -3.203325238649655e-29)
(0.06806370571772544 0.0004206858604494909 3.191987292703278e-29)
(0.06814881056346228 0.0006828558137375072 0)
(0.06827142343375069 0.0009188358380380961 3.206261907375971e-29)
(0.06841728219678962 0.001126931873032175 0)
(0.0685769454869674 0.001308697566581023 0)
(0.06874734635315755 0.001467135234324453 5.886860278909182e-29)
(0.06892601805580585 0.001603436118875825 5.535534806714464e-31)
(0.06911107449398225 0.001719329606008049 2.805930822346807e-29)
(0.069299774707636 0.001815980476548132 5.399517244753791e-29)
(0.06949128695978772 0.001894981619234489 -2.630968587387456e-29)
(0.06968388119395844 0.001957027084680489 -2.265632926197819e-31)
(0.06987726857837029 0.002003087523742445 0)
(0.07006944898714804 0.002033716068755082 4.726689594322635e-29)
(0.07026017605367058 0.002049789101832258 -2.281580090976767e-29)
(0.07044730933933988 0.002052087701745252 0)
(0.07063085802714818 0.002041529920130996 -2.11494953359196e-29)
(0.07080865126031732 0.002019408884273351 2.035447154077935e-29)
(0.07098124998983789 0.001986759925809235 1.977668241688017e-29)
(0.07114676869975183 0.001945016997386843 1.885650077773703e-29)
(0.07130609750526654 0.001894921888285826 0)
(0.07145713182501107 0.001838329656077231 0)
(0.07160116318244435 0.001775995043432579 0)
(0.07173643987574142 0.001710075446789493 0)
(0.07186480903971586 0.00164115379685965 -7.874063552768715e-30)
(0.07198475441679365 0.001571561876574734 0)
(0.07209864224957885 0.001501371293953218 7.545977064394226e-30)
(0.07220488721518463 0.001432805322228258 0)
(0.07230641251806336 0.001365392028274596 -1.406411328515874e-29)
(0.07240139032205131 0.001301216379008869 0)
(0.07249337906105929 0.001238955588529541 -1.371644526609079e-31)
(0.0725793884583399 0.001181434788667002 1.276782641777101e-31)
(0.07266393596319286 0.001126647013089084 -9.468655046067726e-30)
(0.07274307842042323 0.001077407536134052 -3.090188021335259e-30)
(0.07282265306343429 0.00103023851683849 -5.965192944601681e-30)
(0.07289705663438158 0.0009883214573687127 2.881676518510905e-30)
(0.07297293150367239 0.0009482671885714305 2.847734741014815e-30)
(0.07304257627887588 0.0009135416415246852 0)
(0.07311664475226257 0.0008799107855495562 0)
(0.07317781010084375 0.0008515239227023093 0)
(0.06802442705716243 0.000121417227950196 3.203354889422016e-29)
(0.0680538585290852 0.0003611027661089906 -3.192082115981033e-29)
(0.06812126119461448 0.0005897584417374409 0)
(0.06822055096718085 0.0007998864664010637 0)
(0.06834201361819284 0.0009886398667219682 0)
(0.06847839016832664 0.001155774588939686 0)
(0.06862665644151199 0.00130301888625777 -2.911254831295763e-29)
(0.0687841374495235 0.001430974237542972 2.836998391574963e-29)
(0.06894908324260531 0.001540857910417376 0)
(0.06911878371633952 0.001633269572301708 -2.681159925193598e-29)
(0.06929230546368889 0.001709512146790826 2.571886850053016e-29)
(0.0694676377101768 0.001770111219000938 -2.520649975846831e-29)
(0.06964449454624858 0.001816013833564937 2.424010239606562e-29)
(0.06982079757264362 0.001847682391543449 -9.617979140615298e-32)
(0.06999647001859872 0.001865962001237985 2.276047955743791e-29)
(0.07016934856229845 0.001871551982134869 -2.203173821856883e-29)
(0.07033969251547177 0.001865316773067408 0)
(0.07050532974411575 0.001848338262899938 0)
(0.07066696462403937 0.001821477778759045 -1.978052162820173e-29)
(0.07082251492520006 0.001786071022650632 0)
(0.07097310763082554 0.001742777952391232 0)
(0.07111658950805638 0.001693322668600998 0)
(0.0712545288050018 0.001638282385973944 0)
(0.07138488799415138 0.001579720872905235 0)
(0.07150978612967222 0.001517923085849485 0)
(0.07162722319613896 0.001455149677999889 0)
(0.07173986505289975 0.001391197653510887 1.467461113496473e-31)
(0.0718456043945641 0.001328442271304166 0)
(0.07194768648640532 0.001266149385024875 1.43586946752106e-29)
(0.07204363313505417 0.001206742590761431 0)
(0.07213728356564446 0.0011487207482498 -1.270768010520875e-31)
(0.07222526876402401 0.00109480348903068 -6.529655168288217e-30)
(0.0723121732349532 0.001042875987780032 -1.107246400036113e-31)
(0.07239384766602398 0.0009958523805517997 9.374007972296344e-30)
(0.07247587229463076 0.0009509155752023195 -4.641093115074954e-32)
(0.07255282290857744 0.0009110399403301898 0)
(0.07263118467154785 0.0008731287382533723 -2.848216019716064e-30)
(0.07270338104576778 0.0008403466700851916 0)
(0.07277960671633286 0.0008089895105757523 -1.363231859004731e-30)
(0.07284367720613547 0.0007824364250865794 0)
(0.0680232174076235 0.0001053088847913698 3.002737836439565e-29)
(0.06804706485472596 0.0003134134224150616 0)
(0.06810196365976733 0.0005137202761066454 0)
(0.06818400691143718 0.0007005318678647259 0)
(0.0682864544332127 0.000871026993378148 0)
(0.06840380799315574 0.001023993318911978 -2.847931102442014e-29)
(0.0685334531215314 0.001160217629991493 0)
(0.06867275203540087 0.001279717522524638 0)
(0.06882009036044694 0.001383306090364162 0)
(0.06897288926794233 0.00147115613206376 0)
(0.06913022872033847 0.001544279659310809 -5.115835888331659e-29)
(0.06929000733556309 0.001602991652618888 0)
(0.06945192876004713 0.001648160325615339 -2.424366573407089e-29)
(0.06961392335292448 0.00168015251282527 -2.350161101586324e-29)
(0.06977601170289117 0.001699770982337237 -2.276406799526408e-29)
(0.0699360763522596 0.00170762279876792 4.407180805393733e-29)
(0.07009450094316125 0.001704501878989166 2.136783472196225e-29)
(0.07024915217749279 0.001691339178072334 0)
(0.0704008314939982 0.001668887550034391 2.006991835026952e-29)
(0.07054742878570401 0.001638386955124809 0)
(0.07069018541916931 0.001600443130517992 -1.884070172915503e-29)
(0.07082694421452729 0.001556646612388193 -1.825622129299481e-29)
(0.0709593904798404 0.001507444027797006 0)
(0.07108536435448663 0.001454750348662059 -1.715238125468011e-29)
(0.07120707750615299 0.001398706759990628 0)
(0.071322323056593 0.001341466695248668 0)
(0.07143384864938683 0.001282744167806197 7.962430838721043e-30)
(0.07153927402019668 0.001224858093039761 0)
(0.07164188211741872 0.001166998260938073 -1.462932710010146e-29)
(0.07173889760897455 0.001111581631793883 -7.166138609463059e-30)
(0.07183416362428612 0.001057182990482925 6.842424218008709e-30)
(0.0719242129276932 0.001006416514521211 -6.761240735424871e-30)
(0.07201356092687501 0.0009573784333332311 6.464322868602552e-30)
(0.07209796487552307 0.000912818914956388 -6.284248140950504e-30)
(0.07218276014437416 0.000870286809515402 -3.141149724632103e-30)
(0.0722625479778255 0.0008325088907809193 0)
(0.07234367436086719 0.0007967186577622347 0)
(0.07241866840617715 0.0007658226277632926 0)
(0.0724974511717827 0.000736609670383197 -1.302626277721017e-32)
(0.07256453622213316 0.000711940001857062 1.669372797453343e-31)
(0.0680223390748885 9.210815836096064e-05 -8.8451567713554e-29)
(0.06804215037654267 0.000274251777971319 0)
(0.06808790176833469 0.0004505900939302661 0)
(0.06815691741917898 0.0006167548268795036 -5.736217060250022e-29)
(0.06824433378233732 0.0007702184201309154 0)
(0.06834598626615064 0.0009093602464123426 5.89740673545201e-31)
(0.0684597647890373 0.001034378563986797 0)
(0.06858327298381356 0.001144909919010397 0)
(0.06871505408824702 0.001241470846614268 0)
(0.06885273200211631 0.001323968603564147 2.576524607941753e-29)
(0.06899543823112841 0.001393172293875407 5.060398526169338e-29)
(0.06914112376620965 0.001449228100732761 0)
(0.06928947656448932 0.001492894062278962 0)
(0.06943850349351181 0.001524443414781188 0)
(0.06958825635627246 0.001544603775067067 0)
(0.06973671776064315 0.001553882422013569 -9.837960033315918e-33)
(0.06988430958455774 0.001552994085359329 -2.137097294743201e-29)
(0.07002899935652129 0.001542743963318868 0)
(0.07017161098825503 0.001523802515896705 -2.007296787982977e-29)
(0.07031010617359044 0.001497284674822197 1.959093953570247e-29)
(0.07044572887096723 0.001463738705727975 1.884361662452129e-29)
(0.07057639382869743 0.001424599491486391 1.825905635135986e-29)
(0.07070377717574046 0.001380243986942887 0)
(0.07082574225094419 0.001332415330061011 1.715504033382023e-29)
(0.07094445487152544 0.001281212887917558 1.687286726694016e-29)
(0.07105767967298593 0.001228623225539955 -1.63807788346552e-29)
(0.07116808131631146 0.001174363823707909 -1.566026386174103e-29)
(0.07127320750984791 0.001120595134852297 -1.544456228810843e-29)
(0.07137622752254139 0.001066573096457005 -7.618271904753202e-30)
(0.07147429772774615 0.001014587107140774 1.444965789906584e-29)
(0.07157112435291599 0.0009633989592554087 -7.071699680245371e-30)
(0.07166324985231666 0.0009154445182063453 -1.040296033067372e-31)
(0.07175500234162228 0.0008690517163590007 0)
(0.07184214256279087 0.0008267385286696249 0)
(0.07192976009858876 0.000786397994896965 6.196541008988489e-30)
(0.07201254211858081 0.0007505473992499093 0)
(0.07209664610314014 0.0007167982142851175 -2.953134088247403e-30)
(0.0721747228510192 0.0006877875682414678 0)
(0.07225644192008826 0.0006607686278444014 1.37663182138513e-30)
(0.07232670951790052 0.000638032553286716 -1.669583636864001e-31)
(0.06802167593970329 8.105597550909018e-05 5.842429800589525e-29)
(0.06803844692169281 0.00024140943081068 5.689963650567031e-29)
(0.0680772540267119 0.0003972393766325993 0)
(0.06813616527978884 0.0005451344685906231 1.134492482245755e-28)
(0.06821153470192907 0.0006829241401095874 0)
(0.06830019540647649 0.0008089346533593897 8.260433304192695e-29)
(0.06840049420998254 0.0009230264017718515 0)
(0.06851036431034224 0.001024622028995428 0)
(0.06862849614128837 0.001113989465831466 -5.19547062333061e-29)
(0.06875276813139911 0.001190875281334608 -2.576769207680596e-29)
(0.0688823472081479 0.001255824447790322 -2.516753588326214e-29)
(0.06901534191469276 0.001308856168287218 0)
(0.06915139867558957 0.001350585701694184 0)
(0.06928867234617821 0.001381199621100129 0)
(0.06942718651519802 0.001401325829196682 2.260180308590366e-29)
(0.06956508292534069 0.001411379859910196 -2.20326403611747e-29)
(0.06970275661953919 0.001411991681021945 -2.14306089163516e-29)
(0.06983833038124011 0.00140385355623507 0)
(0.06997258476296142 0.001387564880889291 2.028009170335484e-29)
(0.07010362004754671 0.001364111849945143 -3.93117886969429e-29)
(0.07023261919137455 0.001333996795368854 -1.916728259900594e-29)
(0.07035762782910944 0.00129850632734924 0)
(0.07048024191158188 0.001257985704618617 0)
(0.07059842799753378 0.00121400919573383 0)
(0.0707142317370964 0.00116667549419144 2.169237817267471e-31)
(0.07082548493953569 0.001117795648945128 -2.235530099496859e-31)
(0.07093469905856595 0.001067133086562074 -1.613374170669815e-29)
(0.07103946401707477 0.001016678716201012 -2.260389326009969e-31)
(0.0711427704598193 0.0009658013775165535 -2.224111341803042e-31)
(0.07124181379790077 0.0009166307206019892 -7.283445238665363e-30)
(0.07134009827535515 0.0008681188615743536 7.072637485242242e-30)
(0.07143423628859656 0.0008225124888672159 6.867135183371464e-30)
(0.07152832096820504 0.0007783812229913697 6.757833737043766e-30)
(0.07161819897607569 0.0007380374677156294 -6.554304591598664e-30)
(0.0717086927618142 0.0006997028040554018 -6.354427143055927e-30)
(0.07179462142334571 0.0006656838769322771 -6.158103190137727e-30)
(0.0718818785845301 0.0006339491788753503 2.953491311727206e-30)
(0.0719632770061203 0.000606845533114234 -2.888698356273245e-30)
(0.07204816507277123 0.0005820720625433872 1.398709389970256e-30)
(0.07212191012931576 0.0005613595744781461 0)
(0.06802115826805337 7.164290364053695e-05 0)
(0.06803556336698773 0.0002134088987895508 -1.253380993007965e-30)
(0.06806893647355142 0.0003514971217606823 0)
(0.0681198449545348 0.0004832526686118054 -1.145270170234803e-30)
(0.06818542944886907 0.0006067710528929177 0)
(0.06826329652573973 0.0007205458885894741 -5.471389181033789e-29)
(0.06835210354463657 0.0008241794327284048 0)
(0.06845019229877444 0.0009170617695121128 5.216610873861595e-29)
(0.06855630779595985 0.0009991954796517357 5.195866756404958e-29)
(0.06866871060056778 0.001070310370899136 0)
(0.06878647588145946 0.00113069541800655 -4.933088787229142e-29)
(0.06890805494580166 0.001180340382611004 0)
(0.06903290363677059 0.001219670904126734 0)
(0.069159517315404 0.001248836981791353 4.617088980073156e-29)
(0.06928771128587645 0.001268335423079814 -2.260430846198835e-29)
(0.06941596620809116 0.001278515343525832 0)
(0.06954448137857586 0.001279919374346293 2.143313939145206e-29)
(0.06967167133748804 0.001273135038949709 0)
(0.06979816600108436 0.001258696765762022 8.25744225421718e-32)
(0.0699222967132843 0.001237467568728631 1.972061149597323e-29)
(0.07004510002663519 0.001209915082492698 3.847581803887241e-29)
(0.07016482857038975 0.001177184884341876 0)
(0.0702829178510064 0.001139613653920106 0)
(0.07039752071354821 0.00109860719762865 1.778357742108501e-29)
(0.0705104885573213 0.001054292108293934 -1.709435085431582e-29)