/*--------------------------------*- C++ -*----------------------------------*\
| =========                 |                                                 |
| \\      /  F ield         | OpenFOAM: The Open Source CFD Toolbox           |
|  \\    /   O peration     | Version:  2206                                  |
|   \\  /    A nd           | Website:  www.openfoam.com                      |
|    \\/     M anipulation  |                                                 |
\*---------------------------------------------------------------------------*/
FoamFile
{
    version     2.0;
    format      ascii;
    arch        "LSB;label=32;scalar=64";
    class       surfaceVectorField;
    location    "1";
    object      Uf;
}
// * * * * * * * * * * * * * * * * * * * * * * * * * * * * * * * * * * * * * //

dimensions      [0 1 -1 0 0 0 0];

internalField   nonuniform List<vector> 
35915
(
(0.0666406913632796 0.001415878265116904 -2.899432397101511e-30)
(0.06730292855165849 0.001377309262945751 0)
(0.0645201241598678 0.001893810140488891 -5.477108552455545e-30)
(0.06713709544182236 0.002120571670960694 -3.015020671981891e-30)
(0.06225336143223788 0.002012722047310473 -5.004648033794843e-30)
(0.06647056294833548 0.002266770914045086 5.577376234696468e-30)
(0.05990462020570256 0.002073968773366314 -2.426972729684273e-30)
(0.06531598406518785 0.00234875279010707 1.573923428687158e-31)
(0.05747232927779684 0.00210838423260165 0)
(0.06403864232036055 0.00243230593765972 0)
(0.05499401052903518 0.002110567514139695 0)
(0.06272423404711452 0.002478337139200217 0)
(0.05249937235248605 0.002084497862629641 0)
(0.06135650424703862 0.002494659781697638 0)
(0.05001239492780235 0.002038159133397685 -1.928354583778013e-30)
(0.05993077541977381 0.002487002011454899 0)
(0.04754874384452017 0.001977245634252018 -3.773369358536296e-30)
(0.0584603525151195 0.00246367841561224 -6.015872646362949e-31)
(0.04511960407749242 0.001906623316422996 -8.28012879279938e-32)
(0.05696337837289904 0.00242916961234416 -6.19237011575005e-31)
(0.04273121402304155 0.001833647036190419 3.442003835920425e-30)
(0.05545144814285399 0.002388422201936529 6.052459105910435e-31)
(0.04038261339735717 0.001739104190616052 8.190462392037389e-32)
(0.0539272231922066 0.002348634923563197 5.303317441196816e-31)
(0.03808687066722399 0.001589949376987574 -3.110501567248897e-30)
(0.05241257404465096 0.002295778887189863 2.920083801511084e-30)
(0.03587447730713699 0.001411858321416829 -1.512615811529721e-30)
(0.05087138264340036 0.002212430799369748 -2.782447300939027e-30)
(0.03376770569696196 0.001241757042908617 1.339684806077457e-30)
(0.04938168804054722 0.002106809828515498 -2.816891330222671e-30)
(0.03177889899365424 0.001081537851673071 7.911435448599761e-32)
(0.0479236312595445 0.001988845250513222 -4.288951968148328e-31)
(0.02991708571907542 0.0009300813119013101 -1.260571119491349e-30)
(0.04650196178046643 0.001861851717485371 4.508793673158541e-31)
(0.02819008964178796 0.0007853219726224027 0)
(0.0451317541094006 0.001727033989221366 0)
(0.02660412365682822 0.0006479965726924522 0)
(0.04382317099590375 0.001586002953952136 0)
(0.02516394678867246 0.0005209388082901175 -9.986481961878478e-31)
(0.04258184942126965 0.001440212498095226 0)
(0.02387205820607961 0.0004060130150473286 -1.946692685364867e-30)
(0.04140975906487625 0.001291922511356772 2.729106854455481e-31)
(0.02272314571938699 0.000305157836448533 -9.480444711407488e-31)
(0.04031343808681371 0.001148944499693019 2.134542984937052e-30)
(0.02170838379055238 0.0002185279808507958 0)
(0.03929301121936401 0.001014791900704586 0)
(0.02081918226400762 0.0001450162108573799 8.329682177475782e-31)
(0.03834891683146975 0.0008892293597725134 0)
(0.02004721176567831 8.364624382188973e-05 8.329683863726406e-31)
(0.0374784698857691 0.0007719961194725153 -6.753661856362515e-32)
(0.01938149659305112 3.397854841692561e-05 0)
(0.03668073490506826 0.0006657385923071723 -8.18407970471891e-31)
(0.01881096840886072 -5.386394002390066e-06 -3.820826016058568e-31)
(0.03594722134578589 0.0005705494453961649 0)
(0.01832423624019222 -3.633820661771682e-05 -7.562108542239748e-31)
(0.03527925796880332 0.0004867513565097385 7.421511068038859e-31)
(0.01791058585406468 -5.98476365312141e-05 -3.741282472325135e-31)
(0.03466523884580272 0.0004136675978635367 7.138412373410737e-31)
(0.01755933196040329 -7.660306124962621e-05 0)
(0.03410798911293534 0.0003512692576207902 -7.415855307016316e-31)
(0.01726116181105193 -8.75298747049647e-05 3.560493521653911e-31)
(0.0335928480842414 0.0002981837835010177 0)
(0.01700681117963486 -9.347545862413755e-05 3.560493975725677e-31)
(0.0331273348202281 0.0002543626796952339 5.538667618315421e-32)
(0.0167885828684034 -9.539514892976001e-05 0)
(0.03269138913458562 0.0002182388939183146 0)
(0.01659894831102678 -9.420991692926553e-05 0)
(0.03229932845173449 0.0001896438132444973 6.926380699270359e-31)
(0.0164325797195557 -9.08254126172224e-05 0)
(0.03192316456607662 0.0001663766118708088 0)
(0.01628420917775706 -8.560498764100487e-05 0)
(0.03158956241154875 0.0001483774348984805 3.352834377103176e-31)
(0.01614993664833517 -7.929496790585462e-05 8.134725853240368e-32)
(0.03125638241092298 0.0001342783691569532 0)
(0.01602649742484293 -6.904162180864021e-05 1.611463930628934e-31)
(0.03097302898925017 0.000123444085321818 1.135053604328115e-32)
(0.01590627891553841 -5.383091218015268e-05 7.979913305410552e-32)
(0.03065675679376013 0.0001202225705533948 9.697096528283417e-33)
(0.03045213334108833 0.0001230685256611834 0)
(0.01578321351295169 -3.733194457997547e-05 0)
(0.06860115821605901 0.001757836077380112 -2.507287004178571e-30)
(0.06815136640308202 0.0007941514276078151 0)
(0.06910747685613737 0.002346720175393317 5.087953866229419e-30)
(0.06862571054481265 0.001614253503106856 -1.012100748166064e-29)
(0.06933320434634482 0.002566743095199853 1.001449741690902e-29)
(0.06915999388585044 0.002041045333972745 3.723848913852744e-30)
(0.06937612144327392 0.002693369527557995 2.419254185299454e-30)
(0.06945234817181746 0.00230583942635301 -6.777223779275861e-30)
(0.06929964477868657 0.002804113097805509 0)
(0.06959196896292401 0.002508788163303692 0)
(0.06909748887144222 0.002889916088764096 0)
(0.06967249518873204 0.002680500680825662 -8.465041310739312e-30)
(0.06878349699400822 0.00294416489729007 0)
(0.06966312265745062 0.002808661462247036 8.117272011911362e-30)
(0.06836948183654698 0.002968572372086982 1.913300352004191e-30)
(0.06961484757153535 0.002901029291175341 0)
(0.06787101510601153 0.002974790509650358 3.742461808401489e-30)
(0.06947786990681389 0.002962159564065359 1.913300518076277e-30)
(0.06729499189415343 0.002970269514046741 8.339091393304377e-32)
(0.06927503190289436 0.003005209558777945 1.829161058880824e-30)
(0.06664858199285677 0.002958239739595251 -3.408720865756529e-30)
(0.06901939858698883 0.003034851158198357 -1.745770630659325e-30)
(0.0659476512102781 0.002941373352919518 3.066552265009728e-30)
(0.0687135786118335 0.003049586968065984 4.892208377249716e-30)
(0.06519625528982412 0.002918045612098805 3.243824243062616e-30)
(0.06836519396528645 0.003047198235159625 -5.28367355350035e-30)
(0.06439484131389284 0.002877841473644684 -4.302570662234596e-30)
(0.06797407246350688 0.003013870382044917 7.459520718965876e-30)
(0.0635414647679203 0.002812941905084329 -4.140130656984341e-30)
(0.06754080764543755 0.002960214136350812 -5.128762756281697e-31)
(0.06264588591421587 0.002723785007351868 -7.864538869841873e-32)
(0.06706361026676437 0.002884453852151127 -4.00722998341939e-30)
(0.06171761164064019 0.002612878045810237 1.244594519853124e-30)
(0.06654693759161326 0.002790157528110333 -1.304606246852914e-30)
(0.06076658745220776 0.002483854112710488 0)
(0.06599833108566786 0.002678091266732172 -2.42401888336007e-30)
(0.05980105540824245 0.002338985526362346 0)
(0.06542477497049243 0.002551569398108345 0)
(0.05882730703323877 0.002178868644304646 9.850619577333498e-31)
(0.06483297628840042 0.002413996353504577 0)
(0.05785160474793427 0.002009464008282722 3.843710630316928e-30)
(0.06422152605605502 0.002267661102510238 -1.096337523225996e-30)
(0.05688334642306993 0.001838765086977998 2.858649077012526e-30)
(0.06359805146520485 0.002117239631393711 1.861117086698431e-30)
(0.05593233696779877 0.001670621466643853 0)
(0.06296768602072451 0.001965838312315264 0)
(0.05500629042417159 0.001506087597972357 -8.216146421036062e-31)
(0.06233766463599571 0.001815312681191205 0)
(0.05410950112345316 0.001348447505439968 -1.640022527580322e-30)
(0.06171050570629014 0.001668821745555237 -8.216145732618197e-31)
(0.05324422322590984 0.001201297541647439 -8.184078777447404e-31)
(0.06109238365395163 0.00153105213000926 -2.4394839393465e-31)
(0.05241318681688968 0.001066073356560472 1.151187437611392e-30)
(0.06048270478303471 0.001401620569048909 1.638244579947396e-30)
(0.05161803985359874 0.0009432143366616071 2.277112106996096e-30)
(0.05988928352688959 0.001281931897463826 5.105537343903288e-31)
(0.0508601678141724 0.0008330420139420234 3.843393552772118e-31)
(0.05930852954575986 0.001171571876436299 4.513314326375881e-31)
(0.05013973350038228 0.0007353542048298222 -7.415854072781834e-31)
(0.05874992411824225 0.001071734308643258 -3.843327815517915e-32)
(0.04945706871959817 0.0006499550849307478 -3.515500823318898e-31)
(0.05820391654918809 0.000980877637226254 0)
(0.04881099542128498 0.0005761876228557996 -3.515501256897009e-31)
(0.0576847485519083 0.0009004632749205926 -3.515500238913977e-31)
(0.04820071557146673 0.0005133253540985707 6.92637852254168e-31)
(0.05717581322959895 0.0008285441495751039 0)
(0.0476235656447388 0.0004599965993296363 6.926379195167809e-31)
(0.05669926837424783 0.0007668172042053815 -7.99062911735321e-31)
(0.04707870048027348 0.0004149323837242346 3.35283334049627e-31)
(0.05622705001121783 0.0007112632093658558 0)
(0.04656277502956591 0.0003771493096483252 3.352833571225667e-31)
(0.05579237131377558 0.0006643222794224243 -5.5781322463082e-32)
(0.04607494221016157 0.0003454589465577081 -8.039794766281833e-32)
(0.05535091263703339 0.000622128477748206 0)
(0.04561100222174053 0.0003203397919703019 -1.592769092224577e-31)
(0.05496243320503634 0.0005873992991728229 -8.039792928449806e-32)
(0.04517499051624353 0.0003036596930674624 -7.887896016240178e-32)
(0.05453137419245013 0.0005562472782008865 7.981522273445794e-32)
(0.05423097777784437 0.0005353336125533121 0)
(0.0447627356239091 0.000295248783271097 0)
(0.06835148495926552 0.0008244980333744338 -4.776756623964492e-30)
(0.06809256110721844 0.0004606661142584914 0)
(0.0688139403546939 0.001407805300872841 -9.8008888439476e-30)
(0.06838250644462135 0.001151796827805968 9.127028815754977e-30)
(0.06925104236746024 0.001814088276820458 -1.422060826120533e-29)
(0.06880368889722792 0.001603941453648154 -1.425482910745656e-29)
(0.06962753428477422 0.002121294947743568 -9.196478714519004e-30)
(0.06921228172799665 0.001929345667124255 1.108203853373742e-29)
(0.06995799921848186 0.002368908002892763 -8.465039792653236e-30)
(0.06953871186246895 0.002178321562245164 -8.558146047215544e-30)
(0.07024408405558721 0.002568453358137163 -3.477717197614239e-31)
(0.06985029766057275 0.002394414524447427 9.384054852992676e-30)
(0.07049641427675427 0.002719740026507854 8.117272828264341e-30)
(0.07012435036988816 0.00255633037105817 -5.492489947939093e-31)
(0.07071337011259621 0.002842876789022436 0)
(0.07040438198475125 0.002684073205085038 7.654960624295905e-30)
(0.07087918247781456 0.002940979454539525 0)
(0.07063984047307728 0.002796347807257935 0)
(0.07100000518496508 0.003017597335549372 0)
(0.07084030220954554 0.00288438839944611 0)
(0.07108254370663991 0.003075417059887928 6.555156964199235e-30)
(0.07102289493593412 0.002952315195006688 -6.796049156482274e-30)
(0.07113185459411363 0.003115497038765814 -2.836910134475153e-30)
(0.07117446884419677 0.003000279674625437 6.452200812358412e-31)
(0.07114688519166948 0.003126980064775985 -4.708203005744064e-31)
(0.07131077456825256 0.003032172365305866 2.348339857159441e-30)
(0.07112457023881429 0.00310818765072945 1.172948318897675e-29)
(0.07141466887506984 0.003036191275738904 3.523641784569972e-30)
(0.0710641920451875 0.003065678844946013 1.242405540471185e-31)
(0.07150227692998491 0.003020599575077601 2.80822999270976e-30)
(0.07096401426669191 0.002999453587022639 -5.233190582245546e-30)
(0.07155058671926597 0.002984640229899179 1.954295340475565e-31)
(0.07082668356003979 0.002912488479075576 -4.973218756833475e-30)
(0.07158755190907648 0.00292749823161604 5.566867521352583e-30)
(0.07065738273201509 0.002806375109453256 -2.424018861580923e-30)
(0.07158707961821113 0.002847403409414579 4.293037535016754e-31)
(0.07045724974611543 0.002686337963089188 0)
(0.07155525729731078 0.002751714981748333 4.693544888610839e-30)
(0.07022741831884531 0.002557761842302861 -2.081398896045123e-30)
(0.07149636330257246 0.002643841616842984 0)
(0.06996868797636044 0.002424094826961503 -3.994760409211376e-30)
(0.07140983603358113 0.002526406471058598 3.681373929930842e-31)
(0.06968268589374345 0.002287167362392105 -1.913361463561636e-30)
(0.07129560023484077 0.002403257847438374 -5.997900831967376e-30)
(0.06937232655480589 0.002147978794882492 0)
(0.07115705049162618 0.00227621477499209 3.913868889563003e-30)
(0.06904106649660963 0.002009988971951896 0)
(0.07099642079042456 0.002146590707493615 3.75953918231487e-30)
(0.0686921604505242 0.001877875360177636 8.132736702040084e-31)
(0.07081579219722317 0.002017746448689539 0)
(0.06832980855473078 0.001752446550566258 2.45151792621512e-30)
(0.07061798643549215 0.001893423182693947 8.132736004588478e-31)
(0.06795738227824999 0.001633058840895128 8.692004334014921e-31)
(0.07040588524350172 0.00177406632213827 -1.611498639242852e-30)
(0.06757884860505581 0.001520505683128025 -1.520615487622233e-30)
(0.07018280738413926 0.001660485160842514 -2.417123624673987e-30)
(0.06719679781824558 0.00141574911668692 -1.512699246452675e-32)
(0.06995161547653911 0.001553642188188494 8.533104829057173e-31)
(0.06681346767011732 0.001318453407278544 7.364446314574759e-31)
(0.06971540416456974 0.001455083734401004 7.364444313339176e-31)
(0.06643034238465692 0.001228550135605724 0)
(0.06947369776860739 0.001364021791732919 -1.526973318409169e-30)
(0.06604962337633555 0.001146376925920796 0)
(0.06923077530898675 0.001281200558344875 -1.492347080670454e-30)
(0.06567326086325628 0.001072810768159428 -1.388010462912623e-30)
(0.06898384651961287 0.001204924173151836 0)
(0.06530314735216301 0.001007206472815878 -1.388010593901147e-30)
(0.06874110616203323 0.001136947286091231 -7.936204706365041e-31)
(0.06493915008982747 0.0009491347989771645 -3.327766358742279e-31)
(0.06849521818023672 0.001075275988473117 0)
(0.06458207023505712 0.0008974719284806167 -3.327766581386577e-31)
(0.06825745886185844 0.001021416457748706 -3.327765732832319e-31)
(0.06423284668509108 0.0008522631523568097 0)
(0.06801343517861219 0.0009713650323757641 -6.709535131663423e-31)
(0.06389048929709489 0.0008108749738269529 1.58694119875679e-31)
(0.06778827359563623 0.0009297682938089096 0)
(0.06356048060560032 0.0007739910302959779 1.586941232571905e-31)
(0.06753708747598643 0.0008862659601100183 2.752811883689421e-32)
(0.06735800509607981 0.0008500318798296278 1.964147169214011e-32)
(0.06324578999490578 0.0007385654359310091 -1.329728622247915e-26)
(0.06817515360038888 0.0007093059560947001 1.018484925043147e-29)
(0.06805475119813557 0.0003035122937632222 0)
(0.06846428701241775 0.001260425553258042 9.541561722011515e-31)
(0.06821125466746093 0.0008626624433673352 1.924762357960621e-29)
(0.0687815284119699 0.001650597872872204 8.849256220583938e-30)
(0.06848124070141567 0.001286698322206907 -1.577074645699733e-30)
(0.06910270985433303 0.001939663528118966 9.521815815564678e-30)
(0.06878771590307238 0.001608161925661412 1.911878509082231e-29)
(0.0694181979839901 0.00217047388265805 8.166305483185238e-30)
(0.06908257011969623 0.001862830788550425 -1.176027646203585e-30)
(0.06973549347658191 0.002361507301140166 8.604679536748018e-30)
(0.06936782556959531 0.002077116029839027 9.3962105989338e-30)
(0.0700366762378641 0.002514203458485968 -4.648208190822642e-31)
(0.06965500809382277 0.002255144465915306 -1.590542888634222e-29)
(0.07032260161709862 0.002638203960647947 7.654961317159388e-30)
(0.06993361260767464 0.002398144533239581 5.741399880625809e-31)
(0.07059927660106326 0.00274205385029608 0)
(0.07020873298309147 0.002519669478169219 -7.251706489281779e-30)
(0.07086411659785834 0.002826495885438812 -6.796047789637644e-30)
(0.07047142638604199 0.002619545097153705 6.988316306819839e-30)
(0.07111493923967876 0.002890615371603185 -1.335125271059371e-29)
(0.07073457139419877 0.002701489381154256 -2.263697608021065e-31)
(0.07135331762332398 0.002934213792770192 5.927814520790411e-30)
(0.07098337546847232 0.002761898296551616 -6.555203505206324e-30)
(0.0715810146509471 0.002957451009692478 6.535951542707334e-30)
(0.07123407789476098 0.002804472569371947 6.185706637896314e-30)
(0.07179312949577449 0.002957596225579703 -5.947072501737896e-30)
(0.0714678979703032 0.002824073988625978 -5.947071240483631e-30)
(0.07199089368864089 0.002936832997222411 2.682873566721039e-30)
(0.07170120108202349 0.002822833314484813 -5.696813546516987e-30)
(0.07217548290881473 0.002897582425566113 1.03882462004052e-29)
(0.0719075907230781 0.00280004933148895 -2.768532555657622e-30)
(0.07234441772569586 0.00284148065807509 1.01277353440329e-29)
(0.07211696195658794 0.002758562211406861 -2.351116364952773e-30)
(0.07248514968157653 0.002771078005302475 7.11590583769548e-30)
(0.07229818844111829 0.002706670926968861 2.422361533587247e-30)
(0.07259642450414726 0.002687486890536637 4.693544811455886e-30)
(0.07245795523741519 0.002640440375961872 1.655999727311214e-31)
(0.07267986740042251 0.00259248882000963 2.079112473930774e-30)
(0.07259675129734756 0.002560399691989699 0)
(0.07273723029142641 0.002488946762023724 -2.005425885958363e-30)
(0.07271509928782169 0.002469045308355042 2.079112417137922e-30)
(0.07276998903555133 0.002378986851241061 -1.706717945732762e-31)
(0.0728095745734333 0.002370501576372719 3.843740564463833e-30)
(0.07278110844651936 0.002264322693288719 7.673406843275309e-30)
(0.07288544897406121 0.002265098540980714 3.971475308699828e-31)
(0.07277039966431269 0.002147205175046658 3.75953891792222e-30)
(0.07294078475369817 0.002157303365406431 4.300142686164241e-30)
(0.07274080844949274 0.002030470111595027 0)
(0.07297962603967992 0.002047342174051092 0)
(0.07269323064435324 0.001916773231910573 -3.330441749185602e-30)
(0.07299951225625076 0.001941006085922021 -3.616647234115003e-30)
(0.07262993072897722 0.001807087325956166 -4.978521610429895e-30)
(0.07300917732803659 0.001837371855451835 -1.689250481724286e-30)
(0.07255478395279058 0.001701820546293552 -4.319820516310549e-32)
(0.07300480129710675 0.00173563794966854 -5.494323036966828e-32)
(0.07246937325732093 0.001602538667730586 1.604881596359079e-30)
(0.07298674550836268 0.001639059198516922 5.060737776872225e-32)
(0.07237528591763287 0.001510701121454298 -1.52697289845326e-30)
(0.07295958991618588 0.001549177596395589 -1.609700352034702e-30)
(0.0722735736553573 0.001426692860810875 -3.019319766922894e-30)
(0.07292434587752733 0.001465740696715706 -1.582419418638506e-30)
(0.07216483002590141 0.001349810550119836 -1.492346846689531e-30)
(0.0728816508544952 0.001389950864983969 -1.546063950599524e-30)
(0.07205086364960178 0.001279381774632832 6.985404371905109e-31)
(0.07283292529591733 0.001318897150054263 0)
(0.07193323528863714 0.001215406059903728 6.985405016234309e-31)
(0.07278003171796674 0.001254582055764459 -7.630885786771611e-31)
(0.07181260095980156 0.00115746157031459 0)
(0.07272369464228665 0.001195916444566648 0)
(0.07168966681630864 0.001104754556187817 -6.70953341270497e-31)
(0.07266481040267136 0.001144356347619479 6.977306003713391e-31)
(0.07156521734046352 0.001057556517882047 -6.709533758324689e-31)
(0.07260308230161847 0.001095819781652581 -6.712582704736578e-31)
(0.07144065520845513 0.001014472086568318 -1.581867895423264e-31)
(0.07254076218622087 0.00105433511071316 -3.33013040461921e-31)
(0.07131386904070929 0.0009746381778709458 -1.385453257993921e-31)
(0.07247211122999327 0.001013056209175934 -1.581867593072898e-31)
(0.0724212734002835 0.0009795219425909288 -6.475983557335316e-34)
(0.07118438208905151 0.0009366434226574069 1.483360760504888e-26)
(0.06809145022073333 0.0004979689643835217 9.06277143803898e-30)
(0.06803824673721345 0.000230061960461572 0)
(0.06827734532963807 0.0009312520311248447 1.829536136456303e-29)
(0.06813007124140853 0.0006767667329632191 -4.392865914798139e-31)
(0.06851173608065696 0.001280537369825761 8.933294890995139e-30)
(0.06831441369247095 0.00105230636763116 9.232588467532273e-30)
(0.06876464326148432 0.0015626217686158 8.261121281211947e-30)
(0.06854591767963232 0.001355253009175186 -9.815531205582717e-30)
(0.0690238038937431 0.001795699309818817 3.014580120500309e-31)
(0.06878725998481477 0.001603667989363701 8.560417418759171e-30)
(0.06928877051279018 0.001991799627301435 -1.604461207279246e-29)
(0.06902730696564659 0.001812146835361905 -8.258961736009679e-30)
(0.06955463442245796 0.002155727488419864 -1.544299700107002e-29)
(0.0692732773504378 0.001989277614008223 7.290123179026278e-31)
(0.06981756395160689 0.002292524698058443 -1.490905314029506e-29)
(0.06952043984711233 0.002135211760761372 -7.657346634100718e-30)
(0.07007993275862612 0.002407303886773889 -2.6339210884488e-31)
(0.06976944997094288 0.002257297141483646 -1.376775676404718e-29)
(0.07034163035745215 0.002501777959040078 1.378649759180272e-29)
(0.07001588597308607 0.002357843721184385 -3.9431488098145e-31)
(0.070603515804103 0.002576816408945895 6.798182548928916e-30)
(0.07026422547287932 0.002439599915072397 2.010438842791657e-29)
(0.07086372540783895 0.002632577146223197 -6.234385839486452e-30)
(0.0705108370940123 0.002501684493941735 0)
(0.07112272088472699 0.002669245308364437 -6.234387406179315e-30)
(0.07075805562145089 0.002545472713854436 6.114572517075595e-30)
(0.0713761522967184 0.002687414501326188 -5.696812311178957e-30)
(0.07100159949907765 0.002570638114311694 5.938182461648578e-30)
(0.0716203017556846 0.002687008277384635 -1.114821866238521e-29)
(0.07124145560663818 0.002578679358619417 4.937959232939644e-32)
(0.07185118800683149 0.00266676193930789 -1.582516053018216e-29)
(0.07147140036082081 0.002569158668784676 3.92370813217378e-32)
(0.07206724686182117 0.002630146370663554 -1.0373756681111e-29)
(0.07169318496753348 0.002542499043432031 -5.109130971306669e-30)
(0.07227109872928773 0.002580548867541636 -4.694163991604756e-30)
(0.07190212422558426 0.00250281487722565 0)
(0.0724603666257628 0.002518397478525964 -4.694165036454732e-30)
(0.0721010617097385 0.002451168515570152 -4.694163968927207e-30)
(0.07263263777744873 0.002443689529625907 0)
(0.07228687757952902 0.002388124874143895 -4.650444175729077e-30)
(0.07278743961697161 0.002358766072611172 8.28289921123733e-30)
(0.07246012849579307 0.002314240152028611 -4.467113767534704e-30)
(0.07292499977722888 0.002265959007508917 4.369259968821071e-30)
(0.07261742055895559 0.002232938484179004 3.999119961947238e-30)
(0.07304528042436681 0.002168219259888951 -3.79153398981802e-30)
(0.07276103779757155 0.002144815376483949 -3.91364077680238e-30)
(0.07314928239855695 0.0020671214506042 1.221077440282657e-31)
(0.07288904253030502 0.002053299294877847 8.740309687690415e-32)
(0.07323814710531401 0.001965252870736434 -3.616646303881907e-30)
(0.07300431730830351 0.001958475788707412 0)
(0.0733153266575091 0.00186583762194862 -1.921774874801657e-30)
(0.0731040617198654 0.001863825216930667 4.988092437805045e-32)
(0.07338186926295687 0.00176861035949736 3.342399826950546e-30)
(0.07319526765997969 0.00177082827543777 1.694871931793226e-30)
(0.07343584826651364 0.001675472418727066 4.327439989330248e-32)
(0.07327530916991498 0.001681658349839999 1.647527344669284e-30)
(0.07347684795548488 0.001587766265626331 -3.213953515089544e-30)
(0.07334149590746454 0.001598059289399915 -1.604253193207961e-30)
(0.07350881812004091 0.00150537749622363 -1.651668123703165e-30)
(0.07340105515993756 0.001517207499684724 4.963225693152461e-32)
(0.07353220366313992 0.001429709867384566 -8.056979533771817e-32)
(0.07345120048172836 0.001442355478284875 -1.64598553885294e-30)
(0.07354889213994104 0.001359556196743992 -3.860182708400678e-32)
(0.07349757517283301 0.001373262913781444 1.522499109422303e-30)
(0.07356141145851286 0.001294198498833331 -1.461628546264696e-30)
(0.07353697089883697 0.001306378473806486 0)
(0.07357039142085767 0.001234828511452049 -1.46162867880232e-30)
(0.0735694231558941 0.001245602803775768 -4.470620202876464e-32)
(0.0735758147922299 0.001182276797773897 6.977304329735904e-31)
(0.07359828216958778 0.001190493819919185 0)
(0.07357824156849824 0.00113456178477808 6.864172086178606e-31)
(0.0736250975295334 0.001141930308817345 2.388125039668866e-32)
(0.0735777887336895 0.001091877703035079 -3.443262345600064e-31)
(0.07364761492136025 0.001096273305196672 1.341732740586993e-30)
(0.0735746147918942 0.001052750786600341 -3.330129768379364e-31)
(0.07366899784826179 0.001057509653892495 6.681428966137303e-31)
(0.07356804634566529 0.001016883645566225 -1.962249709037616e-32)
(0.07368811448239522 0.001019625147448445 0)
(0.07370913059533482 0.000987980663127062 2.059397843987098e-32)
(0.07355958784453347 0.0009827206123623994 -8.374121394527919e-33)
(0.06806436885882004 0.0004057987295469727 -9.063556179253248e-30)
(0.06803150481817548 0.0001836930376636418 0)
(0.06819305592416609 0.0007815056348024781 -9.063558839320572e-30)
(0.06809325489167826 0.0005480792931612359 7.509573157494016e-30)
(0.06837012988693442 0.001104573459534343 -8.584532404575112e-30)
(0.06822576454438785 0.0008752315625150488 0)
(0.06857197800047345 0.001374200578490205 -8.584534846949929e-30)
(0.06840320115797717 0.001153403580297067 -8.584533469163397e-30)
(0.06878736976425252 0.001600004714437285 0)
(0.06859958791422704 0.001388274488102673 0)
(0.06901137419595381 0.001790982442798071 7.787366938008146e-30)
(0.06880342124480213 0.001588140287809892 1.528907984701486e-29)
(0.0692411419967376 0.001951851683660535 7.787369053754758e-30)
(0.06901472682139467 0.001759507334799736 7.787367711993937e-30)
(0.06947249434929616 0.00208594648515296 -7.012350563266941e-30)
(0.06923150811567365 0.001903856611143542 0)
(0.06970499425274633 0.002196784325320223 -1.400247386231114e-29)
(0.06945182416494479 0.002024794138340915 6.734485216862248e-30)
(0.06993813087775044 0.002286846814522879 6.316081359564812e-30)
(0.06967305343318583 0.002124703716963413 -2.058962713802692e-29)
(0.07017204819461392 0.002357598196197187 1.330620801967851e-29)
(0.0698955922477083 0.002205678941594931 3.9151738911411e-31)
(0.07040551271116156 0.002409712010242093 1.234895616317427e-29)
(0.07011836802244167 0.002268216068393011 -1.272041933106222e-29)
(0.07063780406733083 0.002443664838116933 1.82871404440144e-29)
(0.07034104733859362 0.002313177208824649 2.423711595760808e-31)
(0.070867448006214 0.002460046045324884 1.163673569470765e-29)
(0.07056175085336229 0.002340989818271209 1.191495992088667e-29)
(0.07109360392535054 0.002459770308093134 1.115163545673432e-29)
(0.07077993093799638 0.002352518899886026 5.698553202305215e-30)
(0.07131431789941234 0.002443833421378549 1.066983255264205e-29)
(0.07099369757983953 0.002348440030099769 5.453081204959597e-30)
(0.07152729170327705 0.002414249889073816 5.216751393983371e-30)
(0.07120203707685271 0.002329520505855945 -5.364867351198199e-30)
(0.07173226340348114 0.002372896734582222 0)
(0.07140261953804422 0.002297838414217504 1.018435800843591e-29)
(0.07192852172201554 0.002320468168806481 -4.650443098714498e-30)
(0.07159569092733974 0.002254905442602897 0)
(0.07211489679782757 0.002257882296188147 -9.11755680681274e-30)
(0.07178017726113747 0.00220174510445666 9.496190647653663e-30)
(0.0722899760054353 0.002186783299731379 -8.666583731506374e-30)
(0.07195555893404687 0.002139156365098662 -4.486658878681693e-30)
(0.07245353126395881 0.002109193560441387 -4.199470931438637e-30)
(0.07212049562588488 0.002069378803323493 -4.19946997526784e-30)
(0.07260461820447422 0.0020266229666991 1.035744306105907e-31)
(0.07227479553179864 0.001993724216128959 0)
(0.07274385078591568 0.001941310999167438 1.035744499802649e-31)
(0.07241836431138672 0.001914062720031694 -7.991966071715178e-30)
(0.0728701232497754 0.001854812907544459 3.617300263882586e-30)
(0.07255102743669026 0.001832199600610238 0)
(0.07298411412436095 0.001768342210845822 3.617300884549944e-30)
(0.07267294324594745 0.001749830905376469 3.617300049929355e-30)
(0.0730867675152953 0.001683326960516945 0)
(0.07278430659896273 0.001668171725606477 0)
(0.07318015555541783 0.001602272322369061 0)
(0.07288729270511832 0.001588267408026766 -3.586531729668414e-30)
(0.07326577521146005 0.001524984991271214 1.609859140787417e-30)
(0.07298140041115701 0.001512436978146181 3.483286974250929e-30)
(0.07334398373873471 0.00145184070232002 -3.896464278354253e-32)
(0.0730700313705093 0.001438996563444506 1.609858996568164e-30)
(0.07341644027108642 0.001384025759377343 -1.186194232771444e-31)
(0.07315105543142715 0.001369896753509932 4.734234555328373e-30)
(0.07348404403033065 0.0013197077323578 1.530204955450683e-30)
(0.07322917312904126 0.00130565716042716 1.530204622999083e-30)
(0.07354427059162287 0.00125928600664032 1.461644612156496e-30)
(0.07330237929294825 0.001246150170680462 0)
(0.07359775813456775 0.001203397287591928 1.461644743208456e-30)
(0.07336774976578542 0.001192113751145415 1.461644439893036e-30)
(0.07364747218336647 0.001152351158023045 -6.977111379782718e-31)
(0.07343116683666685 0.001140778424711338 -1.482195263260899e-30)
(0.07369446310014484 0.001105900984249129 6.768901682592917e-31)
(0.073491118939147 0.001094938173828065 -6.977110465370227e-31)
(0.07373894685019999 0.001063750782659206 2.383530344362149e-30)
(0.07354851392513367 0.001051788450100516 6.769332598155917e-31)