/*--------------------------------*- C++ -*----------------------------------*\
| =========                 |                                                 |
| \\      /  F ield         | OpenFOAM: The Open Source CFD Toolbox           |
|  \\    /   O peration     | Version:  2206                                  |
|   \\  /    A nd           | Website:  www.openfoam.com                      |
|    \\/     M anipulation  |                                                 |
\*---------------------------------------------------------------------------*/
FoamFile
{
    version     2.0;
    format      ascii;
    arch        "LSB;label=32;scalar=64";
    class       surfaceVectorField;
    location    "1";
    object      Uf_0;
}
// * * * * * * * * * * * * * * * * * * * * * * * * * * * * * * * * * * * * * //

dimensions      [0 1 -1 0 0 0 0];

internalField   nonuniform List<vector> 
35915
(
(0.06664069226614754 0.001415877437809555 -6.273036109109047e-30)
(0.06730292899566842 0.001377308362281746 4.125626758839031e-30)
(0.06452012776703417 0.001893809044074915 -3.217620236551372e-31)
(0.06713709619237754 0.002120568967345542 2.388771253280257e-30)
(0.06225336898170608 0.002012720042337524 2.576689515485542e-30)
(0.06647056830936043 0.002266766970882497 -5.543108598836451e-31)
(0.05990463310484891 0.002073965846778935 0)
(0.06531599414731847 0.002348747438146763 0)
(0.05747234873805102 0.002108380571585824 2.210931100398955e-30)
(0.06403865805656717 0.002432299372828092 0)
(0.05499403798609706 0.002110563336246557 1.038466539382832e-31)
(0.06272425676121994 0.002478329137261735 1.59411561235339e-31)
(0.05249940816477795 0.002084493288093526 -9.375280355934762e-32)
(0.06135653481134696 0.002494651420026696 -4.174232455717963e-31)
(0.05001243973978967 0.002038154210767689 8.602264175615039e-32)
(0.05993081428454589 0.002486993004118122 4.518230619700943e-30)
(0.04754879847688807 0.001977240230397768 -3.77126703082369e-30)
(0.05846040029877856 0.002463668586513259 -6.015797324104366e-31)
(0.04511966966620955 0.001906616931415788 -3.605094623860726e-30)
(0.05696343576410172 0.002429158646305215 3.018858800023691e-30)
(0.04273129240195518 0.001833639849895225 -1.761138979454636e-30)
(0.0554515164615973 0.002388409401183897 -6.052392551516666e-31)
(0.04038270601092888 0.001739096862716605 1.596773574043128e-30)
(0.0539273033634752 0.002348620677553017 0)
(0.03808697955549657 0.001589941257387961 8.529136054702285e-32)
(0.05241266846169242 0.002295762600470273 2.285931180936683e-31)
(0.03587460471501253 0.001411848671117557 -1.511483052207271e-30)
(0.05087149222632205 0.002212412267298149 1.988031235554451e-31)
(0.03376785432832697 0.001241746009716597 1.338507224193215e-30)
(0.04938181541679269 0.00210678859230487 0)
(0.03177907153907598 0.001081525806343197 2.597876701979461e-30)
(0.04792377865631955 0.001988821323632653 -4.289050294484139e-31)
(0.02991728454943725 0.0009300687678065698 7.408873419995961e-32)
(0.04650213183330542 0.001861825419781429 -4.508897630255324e-31)
(0.028190316633412 0.0007853093882850281 -1.185281012634048e-30)
(0.04513194902501397 0.001727005815386353 4.410241394972189e-31)
(0.02660438042075937 0.0006479842576180472 0)
(0.04382339331639676 0.001585973169405912 2.248588126141792e-30)
(0.0251642340341981 0.0005209269213028014 -9.973396722989314e-31)
(0.04258210096071566 0.001440182004709557 0)
(0.02387237625762208 0.0004060013890969407 -1.944046495733481e-30)
(0.04141004288209957 0.001291891694118089 2.729376933082859e-31)
(0.02272349570124221 0.0003051465143424543 -9.467068054043394e-31)
(0.04031375498370453 0.00114891255873733 -1.709943674872722e-30)
(0.02170876583973037 0.0002185172205760703 0)
(0.03929336423199887 0.001014759823359228 0)
(0.02081959585685769 0.000145005568333076 -8.315377447123076e-31)
(0.03834930496243858 0.0008891978066896234 1.75623131303667e-30)
(0.02004765794104363 8.363529396640208e-05 -8.315379129690594e-31)
(0.03747889576110371 0.0007719635281397182 6.756925665308646e-32)
(0.01938197570302438 3.396779537911098e-05 3.908021319456186e-31)
(0.03668120106905381 0.0006657056494318719 8.169660539970736e-31)
(0.01881148040819273 -5.39650210016126e-06 9.484497424310917e-33)
(0.03594772886606021 0.0005705165483057021 1.231711542976172e-32)
(0.01832478167320573 -3.634752862087731e-05 -7.546640791153502e-31)
(0.0352798093520147 0.0004867179155428333 7.406673888444385e-31)
(0.01791116524260996 -5.985597386780834e-05 -6.777761677746453e-33)
(0.03466583490757167 0.0004136336354595805 -4.284594659949073e-32)
(0.01755994583174341 -7.66103761689444e-05 3.665686613083205e-31)
(0.03410863226026696 0.0003512347682747959 4.979332577947624e-32)
(0.01726181090128053 -8.753634712256206e-05 3.552161382459495e-31)
(0.03359353935457506 0.0002981485583381007 7.263952958039546e-31)
(0.01700749657748403 -9.348137167084792e-05 3.552161835016366e-31)
(0.03312807675658842 0.0002543263659584738 7.693557693858957e-31)
(0.0167893061136479 -9.540062580993237e-05 0)
(0.03269218349660178 0.0002182010405082984 7.021554680581948e-31)
(0.01659971075942509 -9.421503637812542e-05 0)
(0.03230017879536345 0.0001896046040464718 0)
(0.01643338318464246 -9.083019457449433e-05 0)
(0.03192407240461755 0.0001663355891207653 0)
(0.01628505485241832 -8.560949252757694e-05 0)
(0.03159053200875045 0.0001483352192787468 0)
(0.01615082605707745 -7.929924306807173e-05 0)
(0.03125741420827113 0.0001342346293737127 0)
(0.01602743171976222 -6.904554003383501e-05 -7.95628867160667e-32)
(0.03097412774022294 0.0001233991932558843 0)
(0.01590726013783783 -5.383405496588369e-05 -7.956288849539464e-32)
(0.03065792339054648 0.0001201756375790237 -9.690754850305251e-33)
(0.03045337281478365 0.0001230202184903911 0)
(0.01578424303688668 -3.733316815438389e-05 0)
(0.06860115837509764 0.001757833385560901 6.27040323048247e-30)
(0.06815136688186747 0.0007941503703870495 1.387307391393738e-29)
(0.06910747968001195 0.002346714392866091 3.24336743342043e-31)
(0.06862571099770283 0.001614248137070728 2.89552204587895e-30)
(0.06933321188185768 0.00256673566941414 -2.571186554896237e-30)
(0.06915999847190187 0.002041036680939791 -2.571186127994079e-30)
(0.06937613446503464 0.00269336083666952 0)
(0.0694523570113962 0.002305828589130332 0)
(0.0692996637719072 0.002804102490596895 -2.199523630765098e-30)
(0.06959198318053834 0.00250877562719865 8.809862446103106e-30)
(0.06909751486665382 0.002889904024560478 -1.052722831353957e-31)
(0.06967251583865658 0.002680485676218163 6.261533243471631e-30)
(0.06878353066685718 0.002944152141366284 4.058832475555361e-30)
(0.06966315058341378 0.002808645421348021 2.094252211610429e-30)
(0.06836952363134924 0.002968558509570989 3.87684522822727e-30)
(0.06961488262362352 0.002901012159372892 -3.042106947256273e-30)
(0.0678710656888976 0.00297477518296281 7.378463380278983e-30)
(0.06947791382431104 0.002962140943449822 9.382023212921879e-30)
(0.06729505179174536 0.002970252334266644 7.21090515768395e-30)
(0.06927508409011734 0.003005189273728467 7.928227452726126e-31)
(0.06664865281955533 0.00295822025806337 1.744706064777916e-30)
(0.06901945939263397 0.003034827423135726 1.744705705189523e-30)
(0.06594773287395478 0.002941350940004868 -1.579725909505853e-30)
(0.06871364872057271 0.003049561879094368 -6.55086790820216e-30)
(0.06519635066604602 0.002918019738308343 -8.528405086975918e-32)
(0.0683652741331722 0.003047168229087194 -7.826335176205729e-30)
(0.06439495095999843 0.002877811809747503 1.49444267083034e-30)
(0.06797416330606429 0.003013837572527041 1.494442336806677e-30)
(0.06354159092687911 0.002812908216640991 -1.322076163705073e-30)
(0.0675409107069712 0.002960176378909884 0)
(0.06264603080416502 0.002723747301250328 -2.565484299582743e-30)
(0.06706372701263327 0.002884411185189833 -1.322076187363112e-30)
(0.06171777780346272 0.002612836563664441 -7.354173739344851e-32)
(0.06654706977422832 0.00279010994772538 -1.243407810226766e-30)
(0.06076677759677228 0.002483809007149131 3.418454194856165e-30)
(0.06599848063404407 0.002678039100737833 1.16986636845354e-30)
(0.05980127266280756 0.002338937392163556 2.248588072485239e-30)
(0.06542494414280685 0.002551512492516099 1.242903278739886e-30)
(0.05882755512548579 0.002178818527832463 9.837712652911018e-31)
(0.06483316731107561 0.00241393501084318 0)
(0.05785188713955981 0.002009411850167038 -3.414758880766379e-33)
(0.06422174304271318 0.002267595973721297 9.837712288446251e-31)
(0.05688366666008445 0.001838710882439866 -9.871864628211043e-31)
(0.06359829637060588 0.00211716983240849 7.698926774723148e-33)
(0.05593269623750906 0.001670566642377047 1.756230801203124e-30)
(0.06296796223259331 0.001965767189187419 0)
(0.05500669051691411 0.001506032428116338 2.576434844438301e-30)
(0.06233797342721863 0.001815240291640957 7.087627731114211e-31)
(0.05410994719859068 0.001348391250949857 1.637169653170579e-30)
(0.06171085056727676 0.001668743157916465 8.202036152986085e-31)
(0.05324471821021058 0.001201239897751568 4.31410815392274e-31)
(0.06109276792906861 0.001530970263695483 -1.442883777563681e-30)
(0.05241373404144274 0.001066014122307477 7.633688865744068e-31)
(0.06048313090835923 0.001401535416977255 -3.855551046353287e-31)
(0.05161864191527098 0.000943153323043743 1.517365190693035e-30)
(0.0598897547228851 0.001281843604281235 5.09809478005759e-31)
(0.05086082780110912 0.0008329789847736335 6.62932079279925e-33)
(0.05930904785891224 0.001171479973199057 -1.182490318401068e-30)
(0.05014045438320998 0.0007352889001503857 3.645833809023926e-31)
(0.05875049276753912 0.001071638907430464 -3.61811581177855e-31)
(0.04945785296045877 0.0006498871444302883 1.089661400293545e-30)
(0.05820453832483367 0.0009807790375508997 -4.103159154610078e-33)
(0.04881184644873148 0.0005761165908475846 1.065421526309582e-30)
(0.05768542720554067 0.0009003601576413075 -3.933384418482265e-31)
(0.04820163719592919 0.0005132510700529821 7.021553242303218e-31)
(0.05717655010276876 0.0008284356815789363 -7.887366090527085e-31)
(0.04762456143344733 0.000459918833600069 0)
(0.05670006944238639 0.0007667038126014318 6.987571741587219e-31)
(0.04707977462744202 0.0004148513928511684 0)
(0.05622791651972733 0.0007111438093214021 0)
(0.04656393072246249 0.0003770654451067613 0)
(0.05579330989551469 0.0006641984987514416 -6.730333561595424e-31)
(0.0460761835419194 0.0003453721002318382 0)
(0.05535192347350926 0.0006219990795903524 0)
(0.04561233304827099 0.0003202491478404807 7.864542710341149e-32)
(0.05496352273662934 0.0005872648923255213 0)
(0.04517641611593853 0.0003035642589278066 7.864542880898922e-32)
(0.05453254412882532 0.0005561055513000285 7.864540843551101e-32)
(0.05423223378592024 0.0005351849792464236 0)
(0.04476426153155983 0.0002951485225232984 0)
(0.06835148581962316 0.0008244942341266166 1.049819441889287e-29)
(0.06809256142335962 0.0004606641992912616 -1.230771846888443e-29)
(0.06881394275825418 0.001407797274918499 0)
(0.06838250771666704 0.001151789921656126 9.544485356804188e-30)
(0.06925104782204243 0.001814076478884533 0)
(0.06880369227029405 0.001603929752906418 0)
(0.06962754437409507 0.002121280256554606 8.809860907837215e-30)
(0.06921228906684695 0.001929330198412207 8.876410898943172e-30)
(0.06995801536271906 0.002368890962981491 1.727091909196073e-29)
(0.06953872417534739 0.002178302974343825 -1.560622011247125e-30)
(0.07024410646691567 0.002568434408990371 8.461058048738697e-30)
(0.06985031625660094 0.002394393255664139 -9.38008220385985e-30)
(0.07049644384590276 0.002719719706445475 -3.96045409610133e-30)
(0.0701243754273586 0.002556307175016798 0)
(0.07071340732219542 0.002842854895149037 3.509301596335468e-30)
(0.0704044140970915 0.002684048435204552 -1.161137342529893e-29)
(0.07087922787543748 0.002940956018475027 3.83695941738846e-30)
(0.07063988006331841 0.002796321000609939 2.414039843475633e-32)
(0.07100005813614381 0.003017570804038741 -3.632800447370508e-30)
(0.07084034946050215 0.002884360562432723 3.442952512178068e-30)
(0.0710826042589183 0.003075388073835141 -6.550866524381715e-30)
(0.07102294843268279 0.002952283860028912 0)
(0.07113192276488882 0.003115464691538396 -1.279747609475921e-29)
(0.07117452965269401 0.003000246967929569 -7.154124668626272e-30)
(0.07114696130173526 0.003126943567499038 -6.246609464020576e-30)
(0.07131084175020851 0.003032134420287997 -6.97136178573839e-30)
(0.07112465457967417 0.003108147244661028 0)
(0.07141474284080819 0.003036150235312001 0)
(0.07106428565536035 0.003065632346343316 0)
(0.07150235755131852 0.003020552547727218 0)
(0.07096411833521113 0.002999401109316748 0)
(0.07155067589789826 0.002984587103480985 0)
(0.07082679931095552 0.002912430256703216 0)
(0.07158764795701042 0.002927438967202059 -5.15288934600369e-30)
(0.07065751107695942 0.002806311328277182 -2.23868641578516e-30)
(0.07158718651855403 0.002847338647249246 0)
(0.0704573927731084 0.002686268420978951 -2.238686935731105e-30)
(0.07155537517567005 0.00275164339144761 2.449983923953948e-30)
(0.07022757821125081 0.002557686561355028 0)
(0.07149649366370774 0.00264376340555735 -4.470243700803399e-30)
(0.06996886721396221 0.00242401335899176 1.910740812935e-30)
(0.07140998081025568 0.00252632199330276 -4.266563980526854e-30)
(0.06968288717778409 0.002287082034338699 1.910741221364431e-30)
(0.07129576137715635 0.002403165997641739 -2.168595422421437e-30)
(0.06937255224934849 0.002147891465126729 -1.745989286939178e-30)
(0.07115722931091524 0.002276119236399295 0)
(0.06904132007593891 0.002009894246359137 -1.745989634823141e-30)
(0.070996620215222 0.002146490427550129 -1.74598917508139e-30)
(0.06869244355584861 0.001877772131890223 -2.498673530042159e-30)
(0.07081601434964198 0.002017638328846189 0)
(0.06833012406922651 0.001752338442988271 -2.49867398661957e-30)
(0.07061823263474333 0.001893308900335952 9.430431173437653e-31)
(0.06795773264980522 0.001632946418099381 -7.675454444589814e-31)
(0.07040615723520317 0.001773946305487024 0)
(0.06757923609862659 0.001520388646941435 -2.318476282039874e-30)
(0.07018310699320404 0.001660359737442267 8.775508785964275e-31)
(0.06719722483698012 0.00141562709729268 -1.550930950239301e-30)
(0.06995194422318014 0.001553510750903709 -1.887634909220656e-31)
(0.06681393751341992 0.001318327094438725 -7.212703408086496e-31)
(0.06971576372365489 0.001454945498979312 0)
(0.06643085835628018 0.00122841900835601 -1.430149555026326e-30)
(0.06947409129919838 0.001363877053329216 -7.212702405903684e-31)
(0.06605018814899098 0.00114623902707216 -2.118024390113457e-30)
(0.06923120560841925 0.001281048628808694 -7.088790134665576e-31)
(0.06567387722081677 0.00107266549782575 -7.103883660652641e-31)
(0.06898431469331769 0.00120476410819096 6.547722024104861e-31)
(0.06530381893085392 0.001007053318907924 6.987570369006616e-31)
(0.0687416159992838 0.001136778660370997 8.193318523728866e-31)
(0.06493988164475233 0.0009489736301637035 -6.730331649164641e-31)
(0.06849577090977278 0.001075096598252028 0)
(0.06458286383763784 0.0008973030472357421 -6.73033209846836e-31)
(0.06825805892351357 0.001021230614701177 -9.638577799317571e-32)
(0.06423370559823575 0.0008520870522755495 0)
(0.06801408396277395 0.0009711703084500747 6.691599237670442e-31)
(0.06389141788955673 0.0008106913259611714 0)
(0.06778897513816454 0.0009295641915533044 -3.274403750961818e-31)
(0.06356148134735762 0.0007737993917524467 0)
(0.0675378446277882 0.0008860520675389797 0)
(0.06735881982148523 0.000849804963964889 1.958264724287803e-32)
(0.06324686900395611 0.0007383663790387554 0)
(0.06817515427704657 0.0007093010398549933 -1.065494721567337e-29)
(0.06805475143139528 0.0003035097048892764 -1.198012427621076e-29)
(0.06846428918725464 0.001260415105877171 9.544486701523405e-30)
(0.06821125599573263 0.0008626540420383963 1.82253322170695e-30)
(0.06878153374159064 0.00165058254666981 8.876409410725153e-30)
(0.06848124385566177 0.001286683469933933 0)
(0.06910271928193532 0.00193964419464316 6.349155095576887e-32)
(0.06878772331558174 0.001608142362396663 1.335993836072444e-30)
(0.0694182130513992 0.002170451200686635 -2.552942641376295e-29)
(0.06908258188525164 0.001862806564339854 -8.812921504029774e-30)
(0.06973551443449469 0.00236148193183365 -1.671650816907734e-29)
(0.06936784387566242 0.002077088874131394 -1.345567390875223e-30)
(0.07003670413591144 0.002514176075500696 -7.650917533101194e-30)
(0.06965503188573449 0.002255114333298085 7.781677013632151e-30)
(0.07032263615034533 0.002638174776392484 -1.51223639862175e-29)
(0.06993364424228188 0.002398113131721004 -5.741399111553661e-31)
(0.07059931785620784 0.002742022971091329 -3.956955124780646e-31)
(0.07020876985070412 0.002519635953136048 -1.471908809083794e-29)
(0.07086416457021935 0.00282646318746891 7.075752759331706e-30)
(0.07047147104127965 0.002619510546373825 7.335603278061447e-30)
(0.07111499290513927 0.002890580233133582 4.201082456853903e-32)
(0.07073462047596987 0.002701452356432322 0)
(0.07135337760357684 0.002934175442196347 5.986494009816742e-32)
(0.07098343150912774 0.002761859278315979 6.456190702522853e-30)
(0.07158107954612901 0.002957408670262926 1.7854109171264e-32)
(0.07123413757724339 0.002804429712572945 6.310820594068371e-30)
(0.07179320012699522 0.002957549034600443 0)
(0.07146796394871006 0.002824027215169311 0)
(0.07199096965821586 0.002936779961106846 0)
(0.07170127009886784 0.002822780951639172 -5.692341217497773e-30)
(0.0721755642798893 0.002897523011527475 -5.152888143839894e-30)
(0.07190766688157121 0.002799990806296332 0)
(0.0723445053358881 0.002841414886073001 -5.152889368602203e-30)
(0.07211704014101988 0.002758496710412122 -3.162441769349117e-31)
(0.07248524573339357 0.002771005250722082 4.688669173111223e-30)
(0.07229827532928589 0.002706597725456637 0)
(0.0725965294490348 0.002687406475218242 2.184276477145208e-31)
(0.07245804710242786 0.002640359894589744 1.656190191616977e-31)
(0.07267998297884493 0.002592400985681022 -8.73680648142827e-30)
(0.07259685295583281 0.002560310848885058 -4.804111232655782e-30)
(0.07273735668114453 0.002488851457371971 -8.34589892425581e-30)
(0.07271520732470065 0.002468950020728719 -3.018698134108688e-31)
(0.07277012785334026 0.00237888472530349 -4.079335956312251e-30)
(0.07280969514594236 0.002370397299633761 -3.546339675169025e-31)
(0.07278126037727888 0.00226421447341744 0)
(0.07288557709313534 0.002264989890234965 4.02766604909132e-30)
(0.07277056936102244 0.0021470908017661 0)
(0.07294092851318379 0.002157185319953783 0)
(0.07274099273009889 0.002030349046838916 3.430548718495254e-30)
(0.07297977978624448 0.002047219470482999 -3.73710492711945e-30)
(0.0726934336128143 0.001916645192166348 3.430549330397072e-30)
(0.07299968341036596 0.001940873115489636 1.800771035680266e-30)
(0.07263015227758736 0.001806952889977108 1.645095789725953e-30)
(0.07300935736918904 0.001837233258070652 0)
(0.07255502470285451 0.001701679845735683 3.19265815573488e-30)
(0.07300500083884065 0.001735493323897958 -3.340861244424128e-30)
(0.07246963436255316 0.001602390695467716 1.547562334979742e-30)
(0.07298696171741666 0.001638907404766592 4.849408716440791e-30)
(0.0723755692736564 0.001510544907785308 0)
(0.07295982324088958 0.00154901710848496 0)
(0.07227388148602307 0.001426528068863431 0)
(0.07292459798108675 0.001465571481515769 0)
(0.07216516430487156 0.00134963687003846 2.167262951373603e-30)
(0.07288192285206561 0.001389772484511054 0)
(0.07205122511061544 0.001279198553682113 2.183684958417301e-30)
(0.07283321760719665 0.001318709899908473 7.168563448185581e-31)
(0.07193362597721871 0.001215211700866358 1.642178148592757e-32)
(0.07278034498403166 0.001254384198758768 -6.972060469567272e-31)
(0.07181302262150778 0.00115725881822858 6.710594357522581e-31)
(0.07272403010475413 0.001195706076889381 1.424697909482699e-30)
(0.07169012237257108 0.001104544484375844 1.340219232143978e-30)
(0.07266516952152001 0.001144136605163905 -2.490926097004633e-32)
(0.07156570833013494 0.001057334718181938 3.417194936690965e-31)
(0.07260346722257975 0.001095589619286414 6.694784832223213e-31)
(0.07144118578198053 0.00101423802012236 -3.274403053363539e-31)
(0.07254117526600011 0.001054091419191208 1.448198617592669e-33)
(0.0713144399531816 0.0009743881603036738 1.958264264780139e-32)
(0.07247255474525151 0.001012801971120539 0)
(0.07242174656836166 0.0009792503690833503 -6.473772148562329e-34)
(0.0711849976534543 0.000936378565822754 1.659861864297949e-27)
(0.06809145086245448 0.0004979628218052933 1.545036478543926e-31)
(0.06803824694777569 0.000230058732307517 2.708548010199678e-29)
(0.06827734765052364 0.0009312391398300874 -9.545933027839349e-30)
(0.06813007256711882 0.0006767566552360702 -9.545931543067984e-30)
(0.06851174146758196 0.001280518265194409 -8.878540513094419e-30)
(0.06831441694999203 0.001052288452322055 1.697368250172268e-29)
(0.06876465292933193 0.0015625973408007 -8.878543073247498e-30)
(0.06854592514709734 0.001355229168158839 7.687214379481567e-30)
(0.06902381898824154 0.001795670624322328 1.630165492798107e-29)
(0.06878727183666938 0.001603638341786232 0)
(0.06928879163491711 0.001991767706329541 2.408333512123928e-29)
(0.06902732528102895 0.001812113655405987 7.481507794038093e-30)
(0.06955466198201221 0.002155693301633651 1.543498079399374e-29)
(0.06927330110735039 0.00198924104742234 -7.290127842403354e-31)
(0.06981759799189612 0.002292488879357087 4.056633369193733e-31)
(0.06952047104010639 0.002135173882018152 2.239023027461901e-29)
(0.07007997293879599 0.002407266650641839 -7.341449013536568e-30)
(0.06976948636354524 0.002257257480133749 4.980920972811671e-31)
(0.07034167636890479 0.002501739226616324 -9.380533728919517e-32)
(0.07001592942397902 0.002357803342725029 -7.472319322261605e-30)
(0.07060356698394191 0.002576775612493165 6.510882527265637e-30)
(0.0702642731121442 0.002439557725617314 0)
(0.07086378153251784 0.0026325336819983 1.27409293740036e-29)
(0.07051089088566019 0.002501640534545667 6.510882903081031e-30)
(0.07112278129118978 0.00266919795793115 6.230046748752299e-30)
(0.07075811259096672 0.002545425578993597 6.230045488392478e-30)
(0.07137621709575148 0.002687362315279788 -5.692339983777431e-30)
(0.07100166189033914 0.002570586952011592 5.93382277244384e-30)
(0.07162037070917537 0.002686950200362255 -5.692341363746821e-30)
(0.07124152063257208 0.002578622845046626 -5.652044612573504e-30)
(0.07185126126287694 0.002666697315215884 5.153919791599098e-30)
(0.07147147063569856 0.002569095844727076 0)
(0.07206732455507234 0.002630074054311103 5.153920992193518e-30)
(0.07169325787366568 0.002542429108896281 5.153919859813084e-30)
(0.07227118124670336 0.002580468673852344 -4.6892888170556e-30)
(0.07190220270585797 0.00250273685517139 5.04218157201327e-30)
(0.07246045486993284 0.00251830886332978 -4.783735246001005e-30)
(0.07210114358070539 0.002451082311002682 -4.689288794737774e-30)
(0.07263273233840246 0.002443593366488279 4.172299740922631e-30)
(0.07228696623436506 0.002388029717729224 4.489031233291563e-30)
(0.07278754161938193 0.002358661702654975 8.346053679752792e-30)
(0.07246022141643588 0.002314137426321074 4.26674504975984e-30)
(0.07292510961558914 0.002265847680444834 8.106973508756533e-30)
(0.07261752219146221 0.002232826374764975 8.369278890799032e-30)
(0.07304539990555842 0.002168100102026733 4.027665837685843e-30)
(0.07276114478165625 0.002144697086058621 -1.258247840372949e-31)
(0.07314941180225723 0.00206699576345453 -3.737103973300364e-30)
(0.0728891605679954 0.002053171329962317 0)
(0.07323828628482666 0.001965120655988724 -5.483451208261593e-30)
(0.07300444094838494 0.001958343312280264 -3.711300929576427e-30)
(0.07331547566172084 0.001865696283198233 -1.746346856805191e-30)
(0.07310419953764258 0.001863682424677358 -1.746346434206884e-30)
(0.0733820283776144 0.001768462201019768 -5.040339951704237e-30)
(0.07319540809624984 0.001770679570407259 0)
(0.07343602230958483 0.001675316729181635 -1.738494820265608e-30)
(0.07327546521497515 0.001681498798264963 1.903639793055649e-30)
(0.07347703579666334 0.001587602590597577 3.301846407426703e-30)
(0.07334166110569763 0.001597893700069017 -1.037021520113926e-31)
(0.0735090203974904 0.001505204441575668 0)
(0.0734012326101124 0.001517032577928537 0)
(0.07353242070553555 0.001429527286171057 0)
(0.07345138725028987 0.001442171500454472 3.21076003101558e-30)
(0.07354912251959281 0.001359364944911016 -1.456167270886842e-30)
(0.07349777287834972 0.001373071198274727 1.564388015833204e-30)
(0.07356165497016395 0.001293997481760734 -2.16896372761701e-30)
(0.07353718459488195 0.001306178093765095 7.019366125234245e-32)
(0.07357064969301275 0.001234615298773359 7.119011896383636e-31)
(0.07356964833982906 0.001245390188153385 -2.202070750355286e-30)
(0.07357608713457721 0.001182050299700042 7.287292545263646e-31)
(0.0735985181179158 0.00119026938375603 4.089135300366822e-32)
(0.07357853093027029 0.00113432335089573 -6.846578492516856e-31)
(0.07362534814197111 0.001141693548494878 -2.386992181355643e-32)
(0.07357809453627072 0.001091627308027136 3.384674157900566e-31)
(0.0736478745403602 0.001096026703807931 -6.47042388265103e-31)
(0.07357494318929801 0.001052487247069438 3.271568143147408e-31)
(0.07366927882528773 0.001057243368980789 3.271567489899746e-31)
(0.07356839027005822 0.001016607780426826 -1.956373162740937e-32)
(0.07368839843542861 0.001019355384538313 -3.288828546744142e-31)
(0.07370944243042503 0.0009876902974235277 -3.961284110199491e-32)
(0.07355995056173961 0.0009824326308347678 -1.357618062981706e-26)
(0.06806436942960617 0.0004057914874103055 1.738505026344186e-29)
(0.06803150501959716 0.0001836892414010924 5.697594435333338e-31)
(0.06819305832701143 0.0007814905045651573 1.697367979762814e-29)
(0.06809325614667271 0.0005480673860895309 0)
(0.06837013523330368 0.001104550813940185 3.353943800938163e-29)
(0.06822576793846896 0.0008752107065269464 5.494565804836834e-31)
(0.06857198776036791 0.001374171510690194 1.65657580204057e-29)
(0.06840320850255523 0.001153375328731341 -1.548147804013643e-29)
(0.06878738472795706 0.00159997054246387 -8.048297874346285e-30)
(0.06859959997264119 0.001388239639798582 0)
(0.06901139530576147 0.001790944581833574 -1.583169287787786e-29)
(0.06880343931543997 0.001588100964916319 -8.04829874078187e-30)
(0.06924116925353158 0.001951811377991934 6.953529009939844e-30)
(0.06901475082879042 0.001759464624472713 -2.266102248190688e-29)
(0.06947252806158942 0.002085904699113291 2.198635742061472e-29)
(0.06923153874306577 0.001903812280202852 -1.390789414755661e-29)
(0.06970503380381274 0.002196741464476985 2.63428258888245e-31)
(0.06945186063580942 0.002024748641582538 -6.777938953792258e-30)
(0.06993817611656025 0.002286802905154587 -6.986005032615958e-30)
(0.0696730958694335 0.002124657654174835 -2.057741398749468e-29)
(0.07017209833638738 0.002357552749563211 0)
(0.06989563961563805 0.002205631852655459 1.315245708776362e-29)
(0.07040556750886444 0.0024096642870616 0)
(0.070118420246559 0.002268167456598322 1.271207134980135e-29)
(0.07063786295708023 0.00244361376196162 5.933821545385264e-30)
(0.0703411035909397 0.00231312598551226 0)
(0.07086751077576442 0.002459990454051012 5.926478940095101e-30)
(0.07056181104468603 0.00234093477981538 -1.176570012123349e-29)
(0.0710936702863527 0.002459708985163143 -7.344045446504008e-33)
(0.07077999474958074 0.002352458798565585 1.708524712014728e-29)
(0.07131438786345509 0.002443765250476543 0)
(0.07099376477676686 0.00234837360674149 0)
(0.07152736551091199 0.002414174029840358 5.042180442287202e-30)
(0.07120210828032489 0.002329446731502119 1.057243749789432e-29)
(0.07173234114373815 0.002372812469208205 5.042181569527132e-30)
(0.0714026941242977 0.00229775646333736 -1.023039594877534e-29)
(0.07192860408504902 0.002320375303820886 4.566391580828795e-30)
(0.07159577063038167 0.002254814619080696 0)
(0.072114983642746 0.002257780609284259 4.566392552245646e-30)
(0.07178026064120367 0.002201645469994652 -4.859727059510452e-30)
(0.0722900689749071 0.00218667299426016 4.289970368081885e-30)
(0.07195564879001197 0.00213904751867531 0)
(0.07245362951163026 0.002109074799315695 2.61338678229048e-31)
(0.07212059001583934 0.002069261419563967 -5.703762387791172e-32)
(0.0726047243592554 0.002026496183389812 -4.028633331954374e-30)
(0.07227489764661967 0.001993598022424925 -4.028632409231509e-30)
(0.07274396286948047 0.001941176143006149 -1.047309368654495e-31)
(0.07241847218571087 0.001913928830199627 0)
(0.07287024515946881 0.001854669042835292 -1.047309556604956e-31)
(0.07255114334100929 0.001832057301874018 7.675119456550388e-30)
(0.0729842439599028 0.001768191295897776 0)
(0.07267306758539231 0.001749680191134163 0)
(0.0730869060480219 0.001683167739322517 6.888744819390579e-30)
(0.0727844373799347 0.001668014327282388 0)
(0.07318030154311643 0.00160210434310438 3.586501559811771e-30)
(0.07288743279555862 0.001588100405437302 3.40346731865208e-30)
(0.07326592944991087 0.001524808861437049 -3.302244799083463e-30)
(0.0729815459780557 0.001512263142063617 1.749716910377228e-31)
(0.07334414561703884 0.001451655072749556 3.210759258653353e-30)
(0.0730701858775293 0.001438814005915303 0)
(0.07341660997339536 0.001383831336254264 4.775147301213452e-30)
(0.07315121561964133 0.001369704955822395 -3.159606167356894e-30)
(0.07348422466280448 0.001319504312311787 3.09074821176406e-30)
(0.07322933917205239 0.001305454518900185 3.262907752729181e-30)
(0.07354446433487581 0.001259072673540965 3.70863498312408e-32)
(0.07330255758612401 0.001245936683970118 1.578978915702801e-30)
(0.07359796200898697 0.001203173153443652 -2.913959835628466e-30)
(0.07336793486627881 0.001191891008510223 1.535394396680968e-32)
(0.07364768570653954 0.00115211573027019 -7.287364236811702e-31)
(0.07343135870375428 0.00114054434394561 5.404133273216916e-32)
(0.07369468518171797 0.001105654717384451 1.605640575864166e-32)
(0.07349132086910999 0.001094692859390639 -7.446054614305871e-31)
(0.07373917937837166 0.001063487568643072 -6.798928654364427e-31)
(0.07354872012940279 0.001051531406806544 -6.798927377179175e-31)
(0.07378321707000612 0.001025053350401179 -3.288827890988087e-31)
(0.07360304830032315 0.001013204629919245 0)