/*--------------------------------*- C++ -*----------------------------------*\
| =========                 |                                                 |
| \\      /  F ield         | OpenFOAM: The Open Source CFD Toolbox           |
|  \\    /   O peration     | Version:  2206                                  |
|   \\  /    A nd           | Website:  www.openfoam.com                      |
|    \\/     M anipulation  |                                                 |
\*---------------------------------------------------------------------------*/
FoamFile
{
    version     2.0;
    format      ascii;
    arch        "LSB;label=32;scalar=64";
    class       volScalarField::Internal;
    location    "1";
    object      V0;
}
// * * * * * * * * * * * * * * * * * * * * * * * * * * * * * * * * * * * * * //

dimensions      [0 3 0 0 0 0 0];

value           nonuniform List<scalar> 
18114
(
3.941644178151177e-07
3.941647898676921e-07
3.941651573131943e-07
3.941655202466111e-07
3.941658787529036e-07
3.941662329011051e-07
3.941665827437383e-07
3.941669283134227e-07
3.941672696192626e-07
3.941676066433363e-07
3.941679393373473e-07
3.941682676194036e-07
3.941685913710917e-07
3.941689104347877e-07
3.941692246112467e-07
3.94169533657597e-07
3.941698372856239e-07
3.941701351605845e-07
3.94170426900423e-07
3.941707120755764e-07
3.941709902093483e-07
3.941712607789528e-07
3.941715232172406e-07
3.941717769152063e-07
3.941720212252728e-07
3.941722554654156e-07
3.941724789241384e-07
3.94172690866295e-07
3.941728905397367e-07
3.941730771827808e-07
3.941732500323973e-07
3.941734083330627e-07
3.941735513461825e-07
3.941736783599495e-07
3.941737886995623e-07
3.941738817376632e-07
3.941739569048306e-07
3.941740136998859e-07
3.941740516986771e-07
3.94174066591244e-07
3.941644155037599e-07
3.941647828580685e-07
3.941651454479214e-07
3.941655033588145e-07
3.941658566713306e-07
3.941662054530463e-07
3.941665497563409e-07
3.941668896146318e-07
3.941672250387257e-07
3.941675560134245e-07
3.941678824942872e-07
3.941682044046154e-07
3.941685216326919e-07
3.941688340292731e-07
3.941691414053892e-07
3.941694435304891e-07
3.941697401309317e-07
3.941700308889371e-07
3.941703154419389e-07
3.941705933825099e-07
3.941708642587974e-07
3.94171127575604e-07
3.941713827961013e-07
3.941716293442559e-07
3.94171866607985e-07
3.941720939430752e-07
3.941723106778851e-07
3.941725161188083e-07
3.941727095565107e-07
3.941728902728795e-07
3.941730575486582e-07
3.941732106716312e-07
3.941733489453662e-07
3.941734716983116e-07
3.941735782932215e-07
3.941736681367792e-07
3.941737406894967e-07
3.941737954762984e-07
3.941738320997184e-07
3.941738467668164e-07
3.941644132521125e-07
3.941647760211678e-07
3.941651338625363e-07
3.941654868625851e-07
3.941658351031634e-07
3.941661786545089e-07
3.941665175725723e-07
3.941668518950953e-07
3.941671816380001e-07
3.941675067920212e-07
3.941678273196413e-07
3.94168143152182e-07
3.941684541872048e-07
3.94168760286162e-07
3.941690612723291e-07
3.941693569291039e-07
3.941696469986022e-07
3.941699311807184e-07
3.941702091325867e-07
3.941704804685013e-07
3.941707447604321e-07
3.941710015390354e-07
3.941712502953218e-07
3.941714904829728e-07
3.941717215213126e-07
3.941719427990312e-07
3.941721536785855e-07
3.941723535013449e-07
3.941725415934398e-07
3.941727172722693e-07
3.941728798536101e-07
3.941730286593135e-07
3.941731630254065e-07
3.941732823105656e-07
3.941733859048078e-07
3.941734732383184e-07
3.94173543790277e-07
3.941735970976267e-07
3.941736327635379e-07
3.9417364711473e-07
3.941644110583945e-07
3.94164769354687e-07
3.941651225567354e-07
3.941654707583848e-07
3.941658140482664e-07
3.94166152503565e-07
3.941664861875522e-07
3.941668151457483e-07
3.941671394023916e-07
3.9416745895719e-07
3.941677737823515e-07
3.941680838198019e-07
3.941683889787247e-07
3.94168689133324e-07
3.941689841208641e-07
3.941692737400722e-07
3.941695577498209e-07
3.941698358682474e-07
3.941701077722217e-07
3.941703730973189e-07
3.941706314382434e-07
3.941708823498304e-07
3.941711253485667e-07
3.941713599147808e-07
3.941715854954141e-07
3.941718015075068e-07
3.941720073423405e-07
3.94172202370262e-07
3.941723859461774e-07
3.941725574156548e-07
3.941727161216675e-07
3.941728614117685e-07
3.941729926457628e-07
3.941731092036089e-07
3.941732104935503e-07
3.941732959601936e-07
3.941733650923353e-07
3.941734174301062e-07
3.941734525702561e-07
3.94173466907904e-07
3.941644089137885e-07
3.94164762834236e-07
3.941651114935119e-07
3.941654549974762e-07
3.941657934459519e-07
3.941661269270444e-07
3.941664555149324e-07
3.94166779266219e-07
3.941670982165189e-07
3.941674123773437e-07
3.941677217332263e-07
3.941680262390976e-07
3.941683258178847e-07
3.941686203583946e-07
3.941689097134385e-07
3.941691936983064e-07
3.941694720894741e-07
3.941697446237499e-07
3.941700109977479e-07
3.941702708677922e-07
3.94170523850306e-07
3.941707695226625e-07
3.941710074246023e-07
3.941712370602172e-07
3.941714579005275e-07
3.941716693867295e-07
3.9417187093405e-07
3.941720619362819e-07
3.941722417709539e-07
3.941724098051253e-07
3.941725654017404e-07
3.941727079264898e-07
3.941728367550678e-07
3.941729512807196e-07
3.941730509219256e-07
3.941731351299878e-07
3.941732033963159e-07
3.941732552589092e-07
3.941732903073377e-07
3.941733049624299e-07
3.941644068105467e-07
3.941647564374068e-07
3.941651006370981e-07
3.941654395313638e-07
3.941657732350602e-07
3.941661018508393e-07
3.941664254671519e-07
3.941667441547742e-07
3.941670579635733e-07
3.941673669194962e-07
3.941676710218506e-07
3.941679702407399e-07
3.94168264514811e-07
3.941685537491715e-07
3.941688378136033e-07
3.94169116541046e-07
3.941693897263438e-07
3.941696571253708e-07
3.94169918454435e-07
3.94170173390141e-07
3.941704215696396e-07
3.941706625913547e-07
3.941708960162122e-07
3.941711213694387e-07
3.941713381428854e-07
3.94171545798034e-07
3.941717437695801e-07
3.941719314696956e-07
3.941721082928979e-07
3.94172273621583e-07
3.941724268320907e-07
3.941725673012906e-07
3.941726944136111e-07
3.941728075683267e-07
3.941729061869988e-07
3.941729897208649e-07
3.941730576578958e-07
3.941731095292997e-07
3.941731449149513e-07
3.941731602134951e-07
3.941644047392779e-07
3.941647501364965e-07
3.941650899423586e-07
3.941654242980768e-07
3.941657533370154e-07
3.941660771797031e-07
3.941663959319636e-07
3.94166709681649e-07
3.941670184955339e-07
3.941673224164808e-07
3.941676214608039e-07
3.941679156158337e-07
3.941682048377306e-07
3.941684890494802e-07
3.941687681391229e-07
3.941690419582923e-07
3.941693103209016e-07
3.941695730022382e-07
3.941698297383135e-07
3.941700802255741e-07
3.941703241210373e-07
3.941705610428293e-07
3.941707905712141e-07
3.941710122501396e-07
3.941712255893443e-07
3.941714300670771e-07
3.941716251334121e-07
3.941718102142406e-07
3.941719847159001e-07
3.941721480304487e-07
3.941722995415378e-07
3.941724386308261e-07
3.941725646848559e-07
3.941726771022489e-07
3.941727753010883e-07
3.941728587263009e-07
3.941729268568048e-07
3.941729792122303e-07
3.941730153589188e-07
3.941730316245772e-07
3.941644026887952e-07
3.941647438983866e-07
3.941650793550317e-07
3.941654092227824e-07
3.941657336567666e-07
3.941660527984481e-07
3.941663667739046e-07
3.941666756907235e-07
3.941669796350831e-07
3.941672786690269e-07
3.941675728279719e-07
3.941678621183573e-07
3.941681465155411e-07
3.941684259618331e-07
3.941687003647812e-07
3.941689695956523e-07
3.941692334881219e-07
3.941694918372854e-07
3.941697443988795e-07
3.941699908888793e-07
3.941702309834385e-07
3.941704643192151e-07
3.941706904941707e-07
3.941709090688623e-07
3.941711195682646e-07
3.941713214842007e-07
3.941715142783941e-07
3.941716973861987e-07
3.941718702209912e-07
3.941720321792458e-07
3.941721826462689e-07
3.941723210025149e-07
3.94172446630446e-07
3.941725589217567e-07
3.941726572848646e-07
3.94172741152461e-07
3.941728099889239e-07
3.941728632973878e-07
3.941729006262531e-07
3.941729181840237e-07
3.941644006461263e-07
3.941647376846031e-07
3.941650688119883e-07
3.94165394218377e-07
3.941657140836758e-07
3.941660285731112e-07
3.941663378356679e-07
3.941666420011437e-07
3.941669411773986e-07
3.941672354477637e-07
3.941675248686933e-07
3.941678094674738e-07
3.941680892402228e-07
3.941683641499689e-07
3.941686341248983e-07
3.94168899056873e-07
3.941691588000223e-07
3.941694131696704e-07
3.941696619414108e-07
3.941699048505478e-07
3.941701415917966e-07
3.941703718194064e-07
3.941705951476471e-07
3.941708111518405e-07
3.941710193698488e-07
3.941712193042259e-07
3.941714104249787e-07
3.941715921730129e-07
3.941717639643226e-07
3.94171925194896e-07
3.94172075246369e-07
3.941722134923246e-07
3.941723393052276e-07
3.941724520638303e-07
3.941725511609046e-07
3.94172636011138e-07
3.941727060589399e-07
3.941727607859871e-07
3.941727997182099e-07
3.941728188974388e-07
3.941643985965532e-07
3.941647314515401e-07
3.941650582416963e-07
3.941653791861697e-07
3.941656944924409e-07
3.941660043521279e-07
3.94166308939541e-07
3.941666084089547e-07
3.941669028919976e-07
3.941671924952322e-07
3.941674772979043e-07
3.941677573497933e-07
3.941680326692344e-07
3.941683032412477e-07
3.941685690158118e-07
3.941688299063019e-07
3.941690857880279e-07
3.941693364970407e-07
3.941695818290368e-07
3.941698215385982e-07
3.941700553386534e-07
3.941702829003085e-07
3.941705038530417e-07
3.94170717785378e-07
3.941709242460706e-07
3.941711227458958e-07
3.941713127600943e-07
3.941714937315649e-07
3.941716650748115e-07
3.941718261807387e-07
3.941719764222286e-07
3.941721151605337e-07
3.94172241752377e-07
3.941723555576547e-07
3.941724559475939e-07
3.941725423131358e-07
3.941726140733056e-07
3.941726706833478e-07
3.941727116422716e-07
3.941727327786175e-07
3.94164396523733e-07
3.941647251507531e-07
3.941650475647217e-07
3.941653640166395e-07
3.941656747441375e-07
3.941659799676027e-07
3.94166279888898e-07
3.941665746888039e-07
3.941668645246309e-07
3.941671495279222e-07
3.941674298023578e-07
3.941677054216855e-07
3.941679764278369e-07
3.941682428290708e-07
3.941685045982396e-07
3.941687616711869e-07
3.941690139451868e-07
3.941692612776013e-07
3.94169503484625e-07
3.941697403402444e-07
3.941699715754704e-07
3.941701968778125e-07
3.941704158911402e-07
3.941706282159775e-07
3.941708334102959e-07
3.941710309909256e-07
3.941712204356668e-07
3.941714011861526e-07
3.94171572651593e-07
3.941717342134176e-07
3.941718852308731e-07
3.941720250475151e-07
3.941721529986279e-07
3.941722684193337e-07
3.94172370653334e-07
3.941724590619853e-07
3.941725330334215e-07
3.941725919914574e-07
3.941726354038458e-07
3.941726588400944e-07
3.94164394409767e-07
3.94164718729266e-07
3.941650366942874e-07
3.94165348590241e-07
3.941656546872484e-07
3.9416595523661e-07
3.941662504697042e-07
3.941665405956688e-07
3.941668257991816e-07
3.941671062383562e-07
3.941673820427793e-07
3.941676533115561e-07
3.941679201114801e-07
3.941681824752364e-07
3.941684403996387e-07
3.941686938439687e-07
3.941689427283205e-07
3.941691869320819e-07
3.941694262924794e-07
3.941696606032807e-07
3.941698896136836e-07
3.941701130274533e-07
3.941703305023685e-07
3.941705416500937e-07
3.941707460365219e-07
3.941709431827643e-07
3.941711325668274e-07
3.94171313626155e-07
3.941714857611115e-07
3.941716483394778e-07
3.941718007020601e-07
3.941719421694e-07
3.941720720495353e-07
3.941721896467295e-07
3.9417229427096e-07
3.941723852478985e-07
3.941724619290568e-07
3.941725237016941e-07
3.94172569998034e-07
3.941725960838234e-07
3.941643922353712e-07
3.941647121299958e-07
3.941650255369487e-07
3.9416533277835e-07
3.941656341588754e-07
3.941659299626203e-07
3.941662204522102e-07
3.941665058667396e-07
3.941667864197465e-07
3.941670622973202e-07
3.941673336562682e-07
3.941676006223007e-07
3.941678632882809e-07
3.941681217124454e-07
3.941683759166462e-07
3.941686258846219e-07
3.9416887156022e-07
3.941691128457185e-07
3.94169349600107e-07
3.941695816375192e-07
3.941698087257604e-07
3.94170030585027e-07
3.941702468869037e-07
3.941704572537393e-07
3.941706612584645e-07
3.941708584250732e-07
3.941710482298458e-07
3.941712301034368e-07
3.941714034340626e-07
3.941715675718343e-07
3.941717218343869e-07
3.941718655137995e-07
3.941719978848751e-07
3.941721182145817e-07
3.94172225772549e-07
3.941723198422153e-07
3.9417239973231e-07
3.941724647881083e-07
3.9417251440194e-07
3.9417254349236e-07
3.941643899799788e-07
3.941647052921368e-07
3.941650139932843e-07
3.941653164442386e-07
3.941656129859929e-07
3.941659039370343e-07
3.941661895927164e-07
3.941664702234243e-07
3.941667460728331e-07
3.941670173562039e-07
3.941672842587306e-07
3.941675469338617e-07
3.941678055016201e-07
3.941680600468826e-07
3.941683106176172e-07
3.941685572230826e-07
3.941687998319198e-07
3.941690383702898e-07
3.941692727199081e-07
3.941695027161333e-07
3.941697281461173e-07
3.941699487470472e-07
3.941701642046235e-07
3.941703741518584e-07
3.941705781683175e-07
3.941707757799649e-07
3.941709664597995e-07
3.941711496294631e-07
3.941713246620054e-07
3.941714908859866e-07
3.941716475911052e-07
3.94171794035381e-07
3.94171929454014e-07
3.941720530697332e-07
3.941721641045176e-07
3.941722617923026e-07
3.941723453921557e-07
3.94172414201373e-07
3.941724675677257e-07
3.941725000207868e-07
3.941643876219246e-07
3.941646981516734e-07
3.941650019587081e-07
3.941652994441845e-07
3.941655909868541e-07
3.941658769408886e-07
3.941661576355144e-07
3.941664333735103e-07
3.941667044297174e-07
3.941669710495605e-07
3.94167233447604e-07
3.941674918060049e-07
3.941677462729633e-07
3.941679969610398e-07
3.941682439453852e-07
3.941684872618748e-07
3.941687269051033e-07
3.941689628262901e-07
3.94169194931052e-07
3.941694230771471e-07
3.941696470721551e-07
3.941698666712357e-07
3.941700815749986e-07
3.941702914276382e-07
3.941704958154503e-07
3.941706942659794e-07
3.941708862479249e-07
3.941710711720961e-07
3.941712483936526e-07
3.94171417215888e-07
3.941715768957553e-07
3.94171726651344e-07
3.941718656713669e-07
3.941719931266024e-07
3.941721081831493e-07
3.941722100170711e-07
3.941722978298268e-07
3.941723708637701e-07
3.941724284168056e-07
3.941724645898327e-07
3.941643851386272e-07
3.941646906419278e-07
3.941649893243842e-07
3.94165281628746e-07
3.941655679725894e-07
3.941658487467095e-07
3.941661243150608e-07
3.941663950136031e-07
3.94166661149101e-07
3.941669229979208e-07
3.941671808047791e-07
3.941674347813834e-07
3.941676851050035e-07
3.941679319168465e-07
3.941681753203003e-07
3.941684153790433e-07
3.941686521148626e-07
3.941688855053927e-07
3.941691154815908e-07
3.941693419250818e-07
3.941695646653957e-07
3.94169783477114e-07
3.941699980770726e-07
3.941702081217411e-07
3.94170413204907e-07
3.94170612855924e-07
3.941708065387483e-07
3.941709936520624e-07
3.941711735308126e-07
3.941713454494858e-07
3.941715086274534e-07
3.941716622366331e-07
3.941718054116935e-07
3.941719372627509e-07
3.94172056890495e-07
3.941721634032334e-07
3.941722559352462e-07
3.941723336654993e-07
3.94172395835576e-07
3.941724360806015e-07
3.941643825067879e-07
3.941646826941526e-07
3.94164975978208e-07
3.94165262844099e-07
3.941655437489007e-07
3.941658191205803e-07
3.941660893583152e-07
3.941663548317243e-07
3.941666158799738e-07
3.941668728108718e-07
3.941671258998726e-07
3.94167375388895e-07
3.941676214850363e-07
3.941678643590519e-07
3.941681041436205e-07
3.94168340931395e-07
3.94168574772732e-07
3.941688056732172e-07
3.941690335908291e-07
3.941692584329204e-07
3.941694800528835e-07
3.94169698246714e-07
3.941699127494163e-07
3.941701232315225e-07
3.94170329295785e-07
3.941705304743626e-07
3.941707262267703e-07
3.941709159389255e-07
3.941710989237405e-07
3.941712744236467e-07
3.941714416155641e-07
3.941715996186317e-07
3.941717475050882e-07
3.941718843144063e-07
3.941720090705818e-07
3.941721208022118e-07
3.941722185645674e-07
3.941723014625529e-07
3.941723686730764e-07
3.941724133314658e-07
3.94164379702626e-07
3.941646742382392e-07
3.941649618059335e-07
3.941652429335927e-07
3.94165518118e-07
3.941657878244238e-07
3.941660524873814e-07
3.941663125102588e-07
3.941665682647954e-07
3.941668200904821e-07
3.941670682938318e-07
3.941673131474452e-07
3.941675548888661e-07
3.941677937191857e-07
3.941680298013648e-07
3.941682632582605e-07
3.941684941702533e-07
3.941687225725846e-07
3.941689484522348e-07
3.941691717444593e-07
3.941693923289516e-07
3.941696100256682e-07
3.941698245904267e-07
3.941700357103954e-07
3.941702429996407e-07
3.941704459950549e-07
3.941706441529232e-07
3.941708368466203e-07
3.941710233658949e-07
3.941712029183478e-07
3.941713746336632e-07
3.941715375711996e-07
3.941716907314594e-07
3.941718330716932e-07
3.941719635257517e-07
3.941720810278035e-07
3.941721845391173e-07
3.941722730765838e-07
3.941723457411949e-07
3.941723951377711e-07
3.941643767021301e-07
3.941646652034497e-07
3.941649466924061e-07
3.941652217394292e-07
3.941654908807082e-07
3.941657546184995e-07
3.941660134223493e-07
3.9416626772915e-07
3.941665179430211e-07
3.941667644350636e-07
3.941670075429303e-07
3.941672475701204e-07
3.94167484785064e-07
3.941677194198573e-07
3.941679516686644e-07
3.94168181685755e-07
3.941684095830653e-07
3.941686354273657e-07
3.941688592368461e-07
3.941690809772567e-07
3.941693005574925e-07
3.941695178246831e-07
3.941697325588596e-07
3.941699444673221e-07
3.941701531788496e-07
3.941703582380971e-07
3.941705591005081e-07
3.941707551282511e-07
3.941709455877857e-07
3.941711296497893e-07
3.94171306392242e-07
3.941714748074559e-07
3.941716338138724e-07
3.941717822731352e-07
3.941719190127675e-07
3.941720428542225e-07
3.94172152645505e-07
3.941722472969439e-07
3.941723258178938e-07
3.941723802551884e-07
3.941643734813494e-07
3.941646555192683e-07
3.941649305229307e-07
3.941651991045106e-07
3.941654618387809e-07
3.941657192641703e-07
3.941659718844823e-07
3.94166220169432e-07
3.94166464554969e-07
3.941667054433803e-07
3.941669432032204e-07
3.941671781688647e-07
3.941674106398454e-07
3.941676408797563e-07
3.941678691147724e-07
3.941680955317477e-07
3.941683202757352e-07
3.94168543447018e-07
3.941687650974694e-07
3.941689852262689e-07
3.94169203774932e-07
3.941694206216473e-07
3.941696355749288e-07
3.941698483667341e-07
3.94170058645157e-07
3.941702659670338e-07
3.94170469790806e-07
3.941706694702522e-07
3.941708642497815e-07
3.941710532621821e-07
3.941712355298919e-07
3.941714099708775e-07
3.941715754102811e-07
3.941717305987376e-07
3.941718742380368e-07
3.941720050141404e-07
3.941721216369279e-07
3.941722228851469e-07
3.941723076541752e-07
3.941723674077422e-07
3.94164370016705e-07
3.94164645116329e-07
3.941649131847549e-07
3.941651748744725e-07
3.94165430797437e-07
3.941656815268891e-07
3.941659275996347e-07
3.941661695170916e-07
3.941664077460498e-07
3.941666427192073e-07
3.941668748354292e-07
3.941671044596543e-07
3.941673319224598e-07
3.941675575192149e-07
3.941677815087518e-07
3.941680041115676e-07
3.941682255073759e-07
3.941684458320462e-07
3.941686651737692e-07
3.941688835684314e-07
3.941691009941066e-07
3.941693173646072e-07
3.941695325221188e-07
3.941697462289581e-07
3.941699581585462e-07
3.941701678859437e-07
3.941703748782706e-07
3.941705784856701e-07
3.941707779336202e-07
3.941709723177218e-07
3.941711606022349e-07
3.941713416239009e-07
3.941715141026578e-07
3.941716766606877e-07
3.941718278509727e-07
3.941719661958132e-07
3.941720902349182e-07
3.941721985817041e-07
3.94172289985436e-07
3.941723553017415e-07
3.941643662853249e-07
3.941646339273911e-07
3.941648945686676e-07
3.94165148899863e-07
3.941653975680753e-07
3.941656411794405e-07
3.941658803019904e-07
3.94166115467231e-07
3.941663471713857e-07
3.941665758763528e-07
3.941668020103684e-07
3.941670259682393e-07
3.941672481112375e-07
3.941674687664973e-07
3.941676882259338e-07
3.94167906744582e-07
3.941681245382428e-07
3.941683417804407e-07
3.941685585984443e-07
3.941687750683911e-07
3.94168991209285e-07
3.941692069758367e-07
3.941694222500477e-07
3.941696368315403e-07
3.941698504266878e-07
3.941700626367651e-07
3.941702729454964e-07
3.941704807066173e-07
3.941706851323969e-07
3.941708852843815e-07
3.941710800680142e-07
3.941712682330933e-07
3.941714483823446e-07
3.941716189902298e-07
3.941717784339565e-07
3.941719250377499e-07
3.941720571303813e-07
3.941721731147678e-07
3.941722715478523e-07
3.941723426473427e-07
3.941643622654093e-07
3.941646218884182e-07
3.941648745707434e-07
3.94165121038479e-07
3.941653619711883e-07
3.94165598005395e-07
3.941658297380268e-07
3.941660577285629e-07
3.941662825007651e-07
3.941665045440946e-07
3.941667243147761e-07
3.941669422364163e-07
3.941671587002456e-07
3.941673740648281e-07
3.94167588655259e-07
3.941678027617363e-07
3.941680166373949e-07
3.941682304953516e-07
3.941684445047306e-07
3.941686587856098e-07
3.941688734026703e-07
3.941690883574042e-07
3.941693035787092e-07
3.941695189118059e-07
3.941697341053859e-07
3.941699487971746e-07
3.941701624981426e-07
3.941703745760029e-07
3.94170584238951e-07
3.941707905210957e-07
3.941709922715582e-07
3.941711881497947e-07
3.941713766301519e-07
3.941715560188953e-07
3.941717244866784e-07
3.941718801184928e-07
3.941720209814648e-07
3.94172145209087e-07
3.941722511003829e-07
3.941723281906114e-07
3.941643579366197e-07
3.941646089397102e-07
3.941648530941414e-07
3.941650911578301e-07
3.941653238394505e-07
3.941655518027764e-07
3.941657756707431e-07
3.941659960281612e-07
3.9416621342394e-07
3.941664283729784e-07
3.941666413576601e-07
3.941668528288702e-07
3.941670632066284e-07
3.941672728801681e-07
3.94167482207459e-07
3.941676915141261e-07
3.941679010915451e-07
3.941681111941158e-07
3.941683220354228e-07
3.941685337831856e-07
3.941687465527078e-07
3.941689603986273e-07
3.941691753046716e-07
3.941693911712387e-07
3.941696078005847e-07
3.941698248796056e-07
3.941700419603601e-07
3.941702584388007e-07
3.941704735326553e-07
3.941706862600126e-07
3.941708954208798e-07
3.941710995849126e-07
3.941712970893488e-07
3.94171486051695e-07
3.94171664401949e-07
3.941718299378241e-07
3.941719804038642e-07
3.94172113591183e-07
3.941722274523506e-07
3.941723107618548e-07
3.941643532804821e-07
3.941645950270675e-07
3.941648300510068e-07
3.941650591376958e-07
3.941652830208899e-07
3.941655023878477e-07
3.941657178840543e-07
3.941659301164462e-07
3.941661396561816e-07
3.941663470409739e-07
3.941665527770295e-07
3.941667573404993e-07
3.941669611785261e-07
3.941671647097388e-07
3.941673683241791e-07
3.941675723826529e-07
3.941677772152049e-07
3.941679831187651e-07
3.941681903536345e-07
3.941683991386297e-07
3.941686096445857e-07
3.941688219859033e-07
3.941690362097059e-07
3.941692522823277e-07
3.941694700726503e-07
3.941696893321374e-07
3.941699096713821e-07
3.94170130533481e-07
3.941703511649511e-07
3.941705705857123e-07
3.941707875606559e-07
3.94171000576549e-07
3.94171207829506e-07
3.941714072295282e-07
3.941715964293982e-07
3.941717728844605e-07
3.941719339459231e-07
3.941720769806456e-07
3.941721994934638e-07
3.941722893565183e-07
3.941643482807943e-07
3.941645801030139e-07
3.941648053644143e-07
3.941650248727667e-07
3.941652393821869e-07
3.941654495990439e-07
3.941656561873079e-07
3.941658597723245e-07
3.941660609440554e-07
3.941662602598798e-07
3.941664582469736e-07
3.941666554041935e-07
3.941668522035756e-07
3.941670490912688e-07
3.941672464879821e-07
3.941674447887977e-07
3.941676443621878e-07
3.941678455482192e-07
3.941680486555234e-07
3.941682539569443e-07
3.941684616833935e-07
3.941686720155219e-07
3.941688850727121e-07
3.941691008988252e-07
3.941693194440737e-07
3.941695405424931e-07
3.941697638845446e-07
3.941699889847094e-07
3.941702151444398e-07
3.941704414117377e-07
3.941706665398217e-07
3.941708889491028e-07
3.941711066989169e-07
3.94171317477816e-07
3.941715186236134e-07
3.941717071854545e-07
3.9417188003775e-07
3.941720340422449e-07
3.941721662031684e-07
3.941722633282455e-07
3.941643429240568e-07
3.941645641280121e-07
3.941647789703132e-07
3.941649882752737e-07
3.941651928119621e-07
3.941653933008718e-07
3.941655904198541e-07
3.941657848083907e-07
3.941659770712834e-07
3.941661677819004e-07
3.941663574849714e-07
3.941665466989329e-07
3.941667359178436e-07
3.941669256128515e-07
3.941671162331518e-07
3.941673082064143e-07
3.94167501938451e-07
3.941676978121253e-07
3.941678961851044e-07
3.94168097386273e-07
3.94168301710319e-07
3.941685094100379e-07
3.941687206856531e-07
3.94168935670455e-07
3.941691544118044e-07
3.941693768466214e-07
3.941696027704028e-07
3.941698317990251e-07
3.941700633230928e-07
3.941702964554168e-07
3.94170529973714e-07
3.941707622627071e-07
3.941709912630092e-07
3.94171214437914e-07
3.94171428774068e-07
3.941716308370125e-07
3.941718169087191e-07
3.941719832429604e-07
3.941721264825097e-07
3.941722315259553e-07
3.941643371998801e-07
3.941645470716604e-07
3.94164750819475e-07
3.941649492775897e-07
3.941651432240105e-07
3.941653333878014e-07
3.941655204555475e-07
3.94165705076086e-07
3.941658878645882e-07
3.941660694062074e-07
3.941662502592747e-07
3.941664309580414e-07
3.941666120150745e-07
3.941667939232253e-07
3.941669771571696e-07
3.941671621745037e-07
3.941673494162064e-07
3.941675393064299e-07
3.941677322512686e-07
3.94167928636286e-07
3.94168128822292e-07
3.94168333138814e-07
3.941685418744735e-07
3.941687552633259e-07
3.941689734659583e-07
3.941691965439885e-07
3.94169424426402e-07
3.941696568662167e-07
3.941698933862114e-07
3.941701332132347e-07
3.941703752020657e-07
3.941706177522919e-07
3.941708587255788e-07
3.941710953760541e-07
3.941713243136479e-07
3.941715415284634e-07
3.941717425167087e-07
3.941719225806489e-07
3.941720770134037e-07
3.941721892607839e-07
3.941643311013838e-07
3.941645289138726e-07
3.941647208793273e-07
3.941649078347314e-07
3.941650905604256e-07
3.941652697879692e-07
3.941654462070649e-07
3.941656204706604e-07
3.94165793199358e-07
3.94165964985392e-07
3.941661363961794e-07
3.94166307977436e-07
3.941664802560066e-07
3.941666537423417e-07
3.941668289326406e-07
3.941670063106765e-07
3.941671863491374e-07
3.941673695104694e-07
3.941675562469075e-07
3.941677469994571e-07
3.941679421953453e-07
3.941681422433083e-07
3.941683475258593e-07
3.941685583874129e-07
3.941687751167603e-07
3.941689979221051e-07
3.941692268963627e-07
3.941694619702333e-07
3.941697028504248e-07
3.9416994894085e-07
3.941701992458332e-07
3.941704522568793e-07
3.941707058289313e-07
3.94170957058981e-07
3.941712021891748e-07
3.941714365650737e-07
3.941716546823328e-07
3.941718503445439e-07
3.941720163840249e-07
3.941721357312504e-07
3.941643246255841e-07
3.941645096459722e-07
3.94164689135719e-07
3.941648639266941e-07
3.941650347944824e-07
3.94165202466625e-07
3.941653676299366e-07
3.941655309358244e-07
3.941656930049696e-07
3.941658544315364e-07
3.941660157870032e-07
3.941661776235919e-07
3.941663404775054e-07
3.941665048718423e-07
3.941666713193631e-07
3.9416684032505e-07
3.941670123883747e-07
3.941671880053452e-07
3.941673676699697e-07
3.94167551875046e-07
3.94167741111745e-07
3.941679358674054e-07
3.941681366206296e-07
3.941683438324499e-07
3.941685579318438e-07
3.941687792933569e-07
3.941690082038963e-07
3.941692448149618e-07
3.941694890760535e-07
3.941697406447378e-07
3.941699987695307e-07
3.941702621435409e-07
3.941705287312531e-07
3.941707955795404e-07
3.941710586378835e-07
3.941713126269517e-07
3.941715509938847e-07
3.941717659351038e-07
3.941719480743782e-07
3.941720776724146e-07
3.94164317773749e-07
3.941644892717039e-07
3.941646555944979e-07
3.941648175605631e-07
3.941649759332297e-07
3.941651314292116e-07
3.941652847261133e-07
3.941654364678726e-07
3.941655872695561e-07
3.941657377217239e-07
3.941658883944391e-07
3.941660398409394e-07
3.941661926011677e-07
3.941663472051161e-07
3.941665041761093e-07
3.941666640340785e-07
3.941668272987862e-07
3.941669944930774e-07
3.941671661459666e-07
3.941673427954539e-07
3.941675249906759e-07
3.941677132928521e-07
3.941679082741542e-07
3.941681105132738e-07
3.941683205858585e-07
3.941685390473503e-07
3.941687664046368e-07
3.941690030716765e-07
3.941692493028051e-07
3.941695050964131e-07
3.941697700613149e-07
3.941700432382517e-07
3.941703228714666e-07
3.941706061354452e-07
3.941708888446225e-07
3.941711652082513e-07
3.941714277277624e-07
3.941716673397441e-07
3.941718720792353e-07
3.941720167669019e-07
3.94164310551718e-07
3.94164467808173e-07
3.941646202829455e-07
3.941647687723247e-07
3.941649140196806e-07
3.941650567239162e-07
3.941651975469536e-07
3.941653371191403e-07
3.941654760440229e-07
3.941656149027351e-07
3.941657542580832e-07
3.941658946583539e-07
3.941660366410435e-07
3.941661807364979e-07
3.941663274716249e-07
3.941664773737908e-07
3.94166630974893e-07
3.941667888158166e-07
3.941669514511421e-07
3.94167119454133e-07
3.94167293421746e-07
3.941674739792428e-07
3.941676617836664e-07
3.941678575250929e-07
3.94168061923928e-07
3.941682757218322e-07
3.941684996624523e-07
3.941687344561578e-07
3.941689807203289e-07
3.941692388846751e-07
3.941695090500781e-07
3.94169790786257e-07
3.941700828491646e-07
3.941703828060479e-07
3.941706865883512e-07
3.941709880566432e-07
3.941712787585235e-07
3.941715473746023e-07
3.941717783980687e-07
3.941719424949596e-07
3.941643029702467e-07
3.941644452867287e-07
3.941645832510268e-07
3.941647176283922e-07
3.941648491345472e-07
3.94164978443636e-07
3.941651061954557e-07
3.941652330006081e-07
3.941653594451053e-07
3.941654860946693e-07
3.941656134987645e-07
3.941657421944208e-07
3.941658727100178e-07
3.941660055690811e-07
3.941661412942628e-07
3.941662804116689e-07
3.941664234556341e-07
3.94166570974188e-07
3.941667235352872e-07
3.941668817339272e-07
3.941670462000941e-07
3.9416721760733e-07
3.94167396681389e-07
3.94167584208139e-07
3.94167781039316e-07
3.941679880942513e-07
3.941682063542929e-07
3.941684368438749e-07
3.941686805871768e-07
3.941689385260416e-07
3.941692113863286e-07
3.941694994732576e-07
3.941698023526931e-07
3.94170118366778e-07
3.941704439673432e-07
3.94170772943312e-07
3.94171095684244e-07
3.941713976732109e-07
3.941716607083811e-07
3.941718517427219e-07
3.941642950453808e-07
3.941644217539086e-07
3.941645445725241e-07
3.941646642267587e-07
3.941647813973847e-07
3.9416489672718e-07
3.941650108275977e-07
3.941651242834464e-07
3.941652376572353e-07
3.941653514932523e-07