<?xml version="1.0"?>
<VTKFile type="UnstructuredGrid" version="0.1" byte_order="LittleEndian">
   <UnstructuredGrid>
      <Piece NumberOfPoints="63" NumberOfCells="0" > 
         <Points> 
            <DataArray type="Float64" Name="Position" NumberOfComponents="3" format="ascii"> 
               0.000473559  -0.000642344  0  
               0.000408535  -0.000685829  0  
               0.000339552  -0.000722713  0  
               0.000267278  -0.000752639  0  
               0.000192413  -0.000775316  0  
               0.000115682  -0.000790525  0  
               3.78268e-05  -0.00079812  0  
               -4.03976e-05  -0.000798026  0  
               -0.000118234  -0.000790244  0  
               -0.000194929  -0.00077485  0  
               -0.000269739  -0.000751992  0  
               -0.000341941  -0.000721893  0  
               -0.000410835  -0.000684843  0  
               -0.000475754  -0.000641202  0  
               -0.000536069  -0.000591391  0  
               0.000774734  -0.000193183  0  
               0.000755388  -0.000258717  0  
               0.000730494  -0.000322351  0  
               0.000700236  -0.000383617  0  
               0.000664838  -0.000442064  0  
               0.000624558  -0.00049726  0  
               0.000579695  -0.000548799  0  
               0.000530578  -0.000596303  0  
               0.000530559  0.000596286  0  
               0.000579641  0.000548755  0  
               0.000624478  0.000497201  0  
               0.000664741  0.000442002  0  
               0.000700137  0.000383561  0  
               0.000730405  0.000322307  0  
               0.000755323  0.000258689  0  
               0.00077471  0.000193173  0  
               -0.000536069  0.000591391  0  
               -0.000475754  0.000641202  0  
               -0.000410835  0.000684843  0  
               -0.000341941  0.000721893  0  
               -0.000269739  0.000751992  0  
               -0.000194929  0.00077485  0  
               -0.000118234  0.000790244  0  
               -4.03976e-05  0.000798026  0  
               3.78268e-05  0.00079812  0  
               0.000115682  0.000790525  0  
               0.000192413  0.000775316  0  
               0.000267278  0.000752639  0  
               0.000339552  0.000722713  0  
               0.000408535  0.000685829  0  
               0.000473559  0.000642344  0  
               -0.000593089  -0.000533975  0  
               -0.000645857  -0.000469149  0  
               -0.000691532  -0.000399145  0  
               -0.000729611  -0.000324735  0  
               -0.000759672  -0.00024674  0  
               -0.000781385  -0.000166022  0  
               -0.000794509  -8.34719e-05  0  
               -0.0007989  0  0  
               -0.000794509  8.34719e-05  0  
               -0.000781385  0.000166022  0  
               -0.000759672  0.00024674  0  
               -0.000729611  0.000324735  0  
               -0.000691532  0.000399145  0  
               -0.000645857  0.000469149  0  
               -0.000593089  0.000533975  0  
               0.0007915  -8e-05  0  
               0.0007915  8e-05  0  
            </DataArray>
         </Points> 

         <Cells>
            <DataArray type="Int32" Name="connectivity" NumberOfComponents="1" format="ascii">
               
            </DataArray> 
            <DataArray type="Int32" Name="offsets" NumberOfComponents="1" format="ascii">
               
            </DataArray>
            <DataArray type="UInt8"  Name="types" NumberOfComponents="1" format="ascii">
               
            </DataArray>
         </Cells>
         <PointData Scalars="Rank " Vectors="Displacement-Cylinder Force ">
            <DataArray type="UInt32" Name="Rank" NumberOfComponents="1" format="ascii">
               0 0 0 0 0 0 0 0 0 0 0 0 0 0 0 0 0 0 0 0 0 0 0 0 0 0 0 0 0 0 0 0 0 0 0 0 0 0 0 0 0 0 0 0 0 0 0 0 0 0 0 0 0 0 0 0 0 0 0 0 0 0 0 
            </DataArray>
            <DataArray type="Float64" Name="Displacement-Cylinder" NumberOfComponents="3" format="ascii">
               0 1.44747e-06 0.0  0 1.44747e-06 0.0  0 1.44747e-06 0.0  0 1.44747e-06 0.0  0 1.44747e-06 0.0  0 1.44747e-06 0.0  0 1.44747e-06 0.0  0 1.44747e-06 0.0  0 1.44747e-06 0.0  0 1.44747e-06 0.0  0 1.44747e-06 0.0  0 1.44747e-06 0.0  0 1.44747e-06 0.0  0 1.44747e-06 0.0  0 1.44747e-06 0.0  0 1.44747e-06 0.0  0 1.44747e-06 0.0  0 1.44747e-06 0.0  0 1.44747e-06 0.0  0 1.44747e-06 0.0  0 1.44747e-06 0.0  0 1.44747e-06 0.0  0 1.44747e-06 0.0  0 1.44747e-06 0.0  0 1.44747e-06 0.0  0 1.44747e-06 0.0  0 1.44747e-06 0.0  0 1.44747e-06 0.0  0 1.44747e-06 0.0  0 1.44747e-06 0.0  0 1.44747e-06 0.0  0 1.44747e-06 0.0  0 1.44747e-06 0.0  0 1.44747e-06 0.0  0 1.44747e-06 0.0  0 1.44747e-06 0.0  0 1.44747e-06 0.0  0 1.44747e-06 0.0  0 1.44747e-06 0.0  0 1.44747e-06 0.0  0 1.44747e-06 0.0  0 1.44747e-06 0.0  0 1.44747e-06 0.0  0 1.44747e-06 0.0  0 1.44747e-06 0.0  0 1.44747e-06 0.0  0 1.44747e-06 0.0  0 1.44747e-06 0.0  0 1.44747e-06 0.0  0 1.44747e-06 0.0  0 1.44747e-06 0.0  0 1.44747e-06 0.0  0 1.44747e-06 0.0  0 1.44747e-06 0.0  0 1.44747e-06 0.0  0 1.44747e-06 0.0  0 1.44747e-06 0.0  0 1.44747e-06 0.0  0 1.44747e-06 0.0  0 1.44747e-06 0.0  0 1.44747e-06 0.0  0 1.44747e-06 0.0  0 1.44747e-06 0.0  
            </DataArray>
            <DataArray type="Float64" Name="Force" NumberOfComponents="3" format="ascii">
               0.000250613 -5.04594e-05 0.0  0.000222695 6.10415e-06 0.0  7.66027e-05 -0.00016071 0.0  6.79638e-05 -0.00017562 0.0  5.87859e-05 -0.000190954 0.0  4.85382e-05 -0.000206258 0.0  3.6753e-05 -0.000219598 0.0  2.44531e-05 -0.000228912 0.0  1.15805e-05 -0.000232189 0.0  -7.878e-07 -0.000227912 0.0  -1.03671e-05 -0.000215012 0.0  -1.50621e-05 -0.000193536 0.0  -1.32351e-05 -0.000164739 0.0  -3.98776e-06 -0.000131322 0.0  1.24333e-05 -9.67416e-05 0.0  0.000111316 -3.85773e-05 0.0  0.000112204 -4.87358e-05 0.0  0.000111513 -5.87117e-05 0.0  0.000109085 -6.8169e-05 0.0  0.00010508 -7.72204e-05 0.0  9.99438e-05 -8.61571e-05 0.0  9.40003e-05 -9.51415e-05 0.0  8.77565e-05 -0.000104573 0.0  5.55203e-05 6.71915e-05 0.0  5.94274e-05 6.01832e-05 0.0  6.35137e-05 5.32008e-05 0.0  6.77197e-05 4.62132e-05 0.0  7.2116e-05 3.91609e-05 0.0  7.67136e-05 3.20027e-05 0.0  8.1485e-05 2.4607e-05 0.0  8.63848e-05 1.66018e-05 0.0  3.40583e-05 6.40426e-05 0.0  1.69447e-05 9.25203e-05 0.0  6.10145e-06 0.000119626 0.0  1.60163e-06 0.000142349 0.0  2.59351e-06 0.000158342 0.0  7.52508e-06 0.000166721 0.0  1.44605e-05 0.00016781 0.0  2.16463e-05 0.000162755 0.0  2.83035e-05 0.000153362 0.0  3.45069e-05 0.000141605 0.0  3.9789e-05 0.000129147 0.0  4.47139e-05 0.000117451 0.0  4.9509e-05 0.000106427 0.0  5.42982e-05 9.59639e-05 0.0  5.9168e-05 8.57026e-05 0.0  4.07422e-05 -6.73259e-05 0.0  7.13731e-05 -3.63381e-05 0.0  0.000109812 -1.14303e-05 0.0  0.000147943 5.50509e-06 0.0  0.000183752 1.35864e-05 0.0  0.000212882 1.34515e-05 0.0  0.000232586 6.95207e-06 0.0  0.000240867 -2.71512e-06 0.0  0.000237035 -1.28481e-05 0.0  0.000221657 -2.08142e-05 0.0  0.000196559 -2.35439e-05 0.0  0.000164344 -1.90239e-05 0.0  0.000129152 -6.48983e-06 0.0  9.29166e-05 1.32592e-05 0.0  6.32793e-05 3.85153e-05 0.0  0 1.44747e-06 0.0  0 1.44747e-06 0.0  
            </DataArray>
         </PointData> 
      </Piece>
   </UnstructuredGrid> 
</VTKFile>
