<?xml version="1.0"?>
<VTKFile type="UnstructuredGrid" version="0.1" byte_order="LittleEndian">
   <UnstructuredGrid>
      <Piece NumberOfPoints="63" NumberOfCells="0" > 
         <Points> 
            <DataArray type="Float64" Name="Position" NumberOfComponents="3" format="ascii"> 
               0.000473559  -0.000642344  0  
               0.000408535  -0.000685829  0  
               0.000339552  -0.000722713  0  
               0.000267278  -0.000752639  0  
               0.000192413  -0.000775316  0  
               0.000115682  -0.000790525  0  
               3.78268e-05  -0.00079812  0  
               -4.03976e-05  -0.000798026  0  
               -0.000118234  -0.000790244  0  
               -0.000194929  -0.00077485  0  
               -0.000269739  -0.000751992  0  
               -0.000341941  -0.000721893  0  
               -0.000410835  -0.000684843  0  
               -0.000475754  -0.000641202  0  
               -0.000536069  -0.000591391  0  
               0.000774734  -0.000193183  0  
               0.000755388  -0.000258717  0  
               0.000730494  -0.000322351  0  
               0.000700236  -0.000383617  0  
               0.000664838  -0.000442064  0  
               0.000624558  -0.00049726  0  
               0.000579695  -0.000548799  0  
               0.000530578  -0.000596303  0  
               0.000530559  0.000596286  0  
               0.000579641  0.000548755  0  
               0.000624478  0.000497201  0  
               0.000664741  0.000442002  0  
               0.000700137  0.000383561  0  
               0.000730405  0.000322307  0  
               0.000755323  0.000258689  0  
               0.00077471  0.000193173  0  
               -0.000536069  0.000591391  0  
               -0.000475754  0.000641202  0  
               -0.000410835  0.000684843  0  
               -0.000341941  0.000721893  0  
               -0.000269739  0.000751992  0  
               -0.000194929  0.00077485  0  
               -0.000118234  0.000790244  0  
               -4.03976e-05  0.000798026  0  
               3.78268e-05  0.00079812  0  
               0.000115682  0.000790525  0  
               0.000192413  0.000775316  0  
               0.000267278  0.000752639  0  
               0.000339552  0.000722713  0  
               0.000408535  0.000685829  0  
               0.000473559  0.000642344  0  
               -0.000593089  -0.000533975  0  
               -0.000645857  -0.000469149  0  
               -0.000691532  -0.000399145  0  
               -0.000729611  -0.000324735  0  
               -0.000759672  -0.00024674  0  
               -0.000781385  -0.000166022  0  
               -0.000794509  -8.34719e-05  0  
               -0.0007989  0  0  
               -0.000794509  8.34719e-05  0  
               -0.000781385  0.000166022  0  
               -0.000759672  0.00024674  0  
               -0.000729611  0.000324735  0  
               -0.000691532  0.000399145  0  
               -0.000645857  0.000469149  0  
               -0.000593089  0.000533975  0  
               0.0007915  -8e-05  0  
               0.0007915  8e-05  0  
            </DataArray>
         </Points> 

         <Cells>
            <DataArray type="Int32" Name="connectivity" NumberOfComponents="1" format="ascii">
               
            </DataArray> 
            <DataArray type="Int32" Name="offsets" NumberOfComponents="1" format="ascii">
               
            </DataArray>
            <DataArray type="UInt8"  Name="types" NumberOfComponents="1" format="ascii">
               
            </DataArray>
         </Cells>
         <PointData Scalars="Rank " Vectors="Displacement-Cylinder Force ">
            <DataArray type="UInt32" Name="Rank" NumberOfComponents="1" format="ascii">
               0 0 0 0 0 0 0 0 0 0 0 0 0 0 0 0 0 0 0 0 0 0 0 0 0 0 0 0 0 0 0 0 0 0 0 0 0 0 0 0 0 0 0 0 0 0 0 0 0 0 0 0 0 0 0 0 0 0 0 0 0 0 0 
            </DataArray>
            <DataArray type="Float64" Name="Displacement-Cylinder" NumberOfComponents="3" format="ascii">
               0 9.52751e-07 0.0  0 9.52751e-07 0.0  0 9.52751e-07 0.0  0 9.52751e-07 0.0  0 9.52751e-07 0.0  0 9.52751e-07 0.0  0 9.52751e-07 0.0  0 9.52751e-07 0.0  0 9.52751e-07 0.0  0 9.52751e-07 0.0  0 9.52751e-07 0.0  0 9.52751e-07 0.0  0 9.52751e-07 0.0  0 9.52751e-07 0.0  0 9.52751e-07 0.0  0 9.52751e-07 0.0  0 9.52751e-07 0.0  0 9.52751e-07 0.0  0 9.52751e-07 0.0  0 9.52751e-07 0.0  0 9.52751e-07 0.0  0 9.52751e-07 0.0  0 9.52751e-07 0.0  0 9.52751e-07 0.0  0 9.52751e-07 0.0  0 9.52751e-07 0.0  0 9.52751e-07 0.0  0 9.52751e-07 0.0  0 9.52751e-07 0.0  0 9.52751e-07 0.0  0 9.52751e-07 0.0  0 9.52751e-07 0.0  0 9.52751e-07 0.0  0 9.52751e-07 0.0  0 9.52751e-07 0.0  0 9.52751e-07 0.0  0 9.52751e-07 0.0  0 9.52751e-07 0.0  0 9.52751e-07 0.0  0 9.52751e-07 0.0  0 9.52751e-07 0.0  0 9.52751e-07 0.0  0 9.52751e-07 0.0  0 9.52751e-07 0.0  0 9.52751e-07 0.0  0 9.52751e-07 0.0  0 9.52751e-07 0.0  0 9.52751e-07 0.0  0 9.52751e-07 0.0  0 9.52751e-07 0.0  0 9.52751e-07 0.0  0 9.52751e-07 0.0  0 9.52751e-07 0.0  0 9.52751e-07 0.0  0 9.52751e-07 0.0  0 9.52751e-07 0.0  0 9.52751e-07 0.0  0 9.52751e-07 0.0  0 9.52751e-07 0.0  0 9.52751e-07 0.0  0 9.52751e-07 0.0  0 9.52751e-07 0.0  0 9.52751e-07 0.0  
            </DataArray>
            <DataArray type="Float64" Name="Force" NumberOfComponents="3" format="ascii">
               0.00021769 -1.48614e-05 0.0  0.000240563 4.12006e-05 0.0  4.91137e-05 -0.000106733 0.0  4.45154e-05 -0.000118363 0.0  3.97373e-05 -0.000130578 0.0  3.45288e-05 -0.000143531 0.0  2.82895e-05 -0.000155892 0.0  2.14331e-05 -0.000165904 0.0  1.39388e-05 -0.00017154 0.0  6.61179e-06 -0.000170911 0.0  1.20466e-06 -0.000162883 0.0  -3.00157e-07 -0.000147106 0.0  3.6882e-06 -0.00012445 0.0  1.40489e-05 -9.72711e-05 0.0  3.07471e-05 -6.85863e-05 0.0  8.56679e-05 -1.9772e-05 0.0  8.13382e-05 -2.7219e-05 0.0  7.69518e-05 -3.41339e-05 0.0  7.247e-05 -4.06793e-05 0.0  6.79058e-05 -4.70424e-05 0.0  6.33743e-05 -5.34734e-05 0.0  5.9017e-05 -6.01223e-05 0.0  5.49649e-05 -6.70341e-05 0.0  8.92079e-05 0.000105797 0.0  9.52571e-05 9.63019e-05 0.0  0.000100736 8.70406e-05 0.0  0.000105082 7.75404e-05 0.0  0.000108056 6.76732e-05 0.0  0.000109388 5.72832e-05 0.0  0.000109071 4.64165e-05 0.0  0.000107396 3.54467e-05 0.0  1.43231e-05 9.31866e-05 0.0  -2.22505e-06 0.000127422 0.0  -1.17302e-05 0.000160627 0.0  -1.38847e-05 0.000189324 0.0  -9.56142e-06 0.00021087 0.0  -3.54537e-07 0.000224014 0.0  1.16986e-05 0.000228701 0.0  2.43473e-05 0.000226014 0.0  3.65554e-05 0.000217384 0.0  4.83803e-05 0.000204757 0.0  5.88206e-05 0.000190152 0.0  6.82955e-05 0.000175411 0.0  7.73361e-05 0.000161038 0.0  8.60857e-05 0.000146871 0.0  9.45661e-05 0.000132812 0.0  5.94405e-05 -4.30056e-05 0.0  8.88019e-05 -1.73051e-05 0.0  0.000125012 2.99078e-06 0.0  0.000160336 1.60992e-05 0.0  0.000192895 2.11844e-05 0.0  0.000218494 1.89504e-05 0.0  0.000234516 1.13431e-05 0.0  0.000239077 1.43301e-06 0.0  0.000231575 -8.14645e-06 0.0  0.000212655 -1.4716e-05 0.0  0.000184249 -1.50997e-05 0.0  0.00014907 -7.39587e-06 0.0  0.000111409 9.08358e-06 0.0  7.32935e-05 3.35024e-05 0.0  4.26966e-05 6.40305e-05 0.0  0 9.52746e-07 0.0  0 9.52746e-07 0.0  
            </DataArray>
         </PointData> 
      </Piece>
   </UnstructuredGrid> 
</VTKFile>
