<?xml version="1.0"?>
<VTKFile type="UnstructuredGrid" version="0.1" byte_order="LittleEndian">
   <UnstructuredGrid>
      <Piece NumberOfPoints="63" NumberOfCells="0" > 
         <Points> 
            <DataArray type="Float64" Name="Position" NumberOfComponents="3" format="ascii"> 
               0.000473559  -0.000642344  0  
               0.000408535  -0.000685829  0  
               0.000339552  -0.000722713  0  
               0.000267278  -0.000752639  0  
               0.000192413  -0.000775316  0  
               0.000115682  -0.000790525  0  
               3.78268e-05  -0.00079812  0  
               -4.03976e-05  -0.000798026  0  
               -0.000118234  -0.000790244  0  
               -0.000194929  -0.00077485  0  
               -0.000269739  -0.000751992  0  
               -0.000341941  -0.000721893  0  
               -0.000410835  -0.000684843  0  
               -0.000475754  -0.000641202  0  
               -0.000536069  -0.000591391  0  
               0.000774734  -0.000193183  0  
               0.000755388  -0.000258717  0  
               0.000730494  -0.000322351  0  
               0.000700236  -0.000383617  0  
               0.000664838  -0.000442064  0  
               0.000624558  -0.00049726  0  
               0.000579695  -0.000548799  0  
               0.000530578  -0.000596303  0  
               0.000530559  0.000596286  0  
               0.000579641  0.000548755  0  
               0.000624478  0.000497201  0  
               0.000664741  0.000442002  0  
               0.000700137  0.000383561  0  
               0.000730405  0.000322307  0  
               0.000755323  0.000258689  0  
               0.00077471  0.000193173  0  
               -0.000536069  0.000591391  0  
               -0.000475754  0.000641202  0  
               -0.000410835  0.000684843  0  
               -0.000341941  0.000721893  0  
               -0.000269739  0.000751992  0  
               -0.000194929  0.00077485  0  
               -0.000118234  0.000790244  0  
               -4.03976e-05  0.000798026  0  
               3.78268e-05  0.00079812  0  
               0.000115682  0.000790525  0  
               0.000192413  0.000775316  0  
               0.000267278  0.000752639  0  
               0.000339552  0.000722713  0  
               0.000408535  0.000685829  0  
               0.000473559  0.000642344  0  
               -0.000593089  -0.000533975  0  
               -0.000645857  -0.000469149  0  
               -0.000691532  -0.000399145  0  
               -0.000729611  -0.000324735  0  
               -0.000759672  -0.00024674  0  
               -0.000781385  -0.000166022  0  
               -0.000794509  -8.34719e-05  0  
               -0.0007989  0  0  
               -0.000794509  8.34719e-05  0  
               -0.000781385  0.000166022  0  
               -0.000759672  0.00024674  0  
               -0.000729611  0.000324735  0  
               -0.000691532  0.000399145  0  
               -0.000645857  0.000469149  0  
               -0.000593089  0.000533975  0  
               0.0007915  -8e-05  0  
               0.0007915  8e-05  0  
            </DataArray>
         </Points> 

         <Cells>
            <DataArray type="Int32" Name="connectivity" NumberOfComponents="1" format="ascii">
               
            </DataArray> 
            <DataArray type="Int32" Name="offsets" NumberOfComponents="1" format="ascii">
               
            </DataArray>
            <DataArray type="UInt8"  Name="types" NumberOfComponents="1" format="ascii">
               
            </DataArray>
         </Cells>
         <PointData Scalars="Rank " Vectors="Displacement-Cylinder Force ">
            <DataArray type="UInt32" Name="Rank" NumberOfComponents="1" format="ascii">
               0 0 0 0 0 0 0 0 0 0 0 0 0 0 0 0 0 0 0 0 0 0 0 0 0 0 0 0 0 0 0 0 0 0 0 0 0 0 0 0 0 0 0 0 0 0 0 0 0 0 0 0 0 0 0 0 0 0 0 0 0 0 0 
            </DataArray>
            <DataArray type="Float64" Name="Displacement-Cylinder" NumberOfComponents="3" format="ascii">
               0 1.51683e-06 0.0  0 1.51683e-06 0.0  0 1.51683e-06 0.0  0 1.51683e-06 0.0  0 1.51683e-06 0.0  0 1.51683e-06 0.0  0 1.51683e-06 0.0  0 1.51683e-06 0.0  0 1.51683e-06 0.0  0 1.51683e-06 0.0  0 1.51683e-06 0.0  0 1.51683e-06 0.0  0 1.51683e-06 0.0  0 1.51683e-06 0.0  0 1.51683e-06 0.0  0 1.51683e-06 0.0  0 1.51683e-06 0.0  0 1.51683e-06 0.0  0 1.51683e-06 0.0  0 1.51683e-06 0.0  0 1.51683e-06 0.0  0 1.51683e-06 0.0  0 1.51683e-06 0.0  0 1.51683e-06 0.0  0 1.51683e-06 0.0  0 1.51683e-06 0.0  0 1.51683e-06 0.0  0 1.51683e-06 0.0  0 1.51683e-06 0.0  0 1.51683e-06 0.0  0 1.51683e-06 0.0  0 1.51683e-06 0.0  0 1.51683e-06 0.0  0 1.51683e-06 0.0  0 1.51683e-06 0.0  0 1.51683e-06 0.0  0 1.51683e-06 0.0  0 1.51683e-06 0.0  0 1.51683e-06 0.0  0 1.51683e-06 0.0  0 1.51683e-06 0.0  0 1.51683e-06 0.0  0 1.51683e-06 0.0  0 1.51683e-06 0.0  0 1.51683e-06 0.0  0 1.51683e-06 0.0  0 1.51683e-06 0.0  0 1.51683e-06 0.0  0 1.51683e-06 0.0  0 1.51683e-06 0.0  0 1.51683e-06 0.0  0 1.51683e-06 0.0  0 1.51683e-06 0.0  0 1.51683e-06 0.0  0 1.51683e-06 0.0  0 1.51683e-06 0.0  0 1.51683e-06 0.0  0 1.51683e-06 0.0  0 1.51683e-06 0.0  0 1.51683e-06 0.0  0 1.51683e-06 0.0  0 1.51683e-06 0.0  0 1.51683e-06 0.0  
            </DataArray>
            <DataArray type="Float64" Name="Force" NumberOfComponents="3" format="ascii">
               0.00024843 -5.03649e-05 0.0  0.000228738 4.22571e-06 0.0  6.78823e-05 -0.00014519 0.0  6.07714e-05 -0.000159711 0.0  5.31202e-05 -0.000174713 0.0  4.44986e-05 -0.000190187 0.0  3.43365e-05 -0.000204138 0.0  2.34996e-05 -0.000214534 0.0  1.19131e-05 -0.00021927 0.0  6.0519e-07 -0.000216606 0.0  -8.23722e-06 -0.000205436 0.0  -1.24776e-05 -0.000185667 0.0  -1.04328e-05 -0.000158462 0.0  -1.17388e-06 -0.000126471 0.0  1.51218e-05 -9.31136e-05 0.0  0.000106685 -3.62386e-05 0.0  0.00010529 -4.4578e-05 0.0  0.000102709 -5.27634e-05 0.0  9.88621e-05 -6.0548e-05 0.0  9.40039e-05 -6.81704e-05 0.0  8.84836e-05 -7.58959e-05 0.0  8.27112e-05 -8.40153e-05 0.0  7.69556e-05 -9.2578e-05 0.0  6.57697e-05 7.87532e-05 0.0  6.99054e-05 7.06257e-05 0.0  7.35704e-05 6.22625e-05 0.0  7.7025e-05 5.35995e-05 0.0  8.0398e-05 4.46942e-05 0.0  8.37775e-05 3.55947e-05 0.0  8.73634e-05 2.64519e-05 0.0  9.10552e-05 1.70621e-05 0.0  3.16687e-05 6.73321e-05 0.0  1.4409e-05 9.69749e-05 0.0  3.53522e-06 0.000125467 0.0  -7.88576e-07 0.000149717 0.0  6.12185e-07 0.000167341 0.0  6.2247e-06 0.000177364 0.0  1.41565e-05 0.000179979 0.0  2.2525e-05 0.000176321 0.0  3.05176e-05 0.000167972 0.0  3.83224e-05 0.000156767 0.0  4.51733e-05 0.000144475 0.0  5.15495e-05 0.00013261 0.0  5.77974e-05 0.000121311 0.0  6.40931e-05 0.000110409 0.0  7.01405e-05 9.95617e-05 0.0  4.33797e-05 -6.44721e-05 0.0  7.36378e-05 -3.43983e-05 0.0  0.000111713 -1.01955e-05 0.0  0.000149457 6.21287e-06 0.0  0.000184908 1.3918e-05 0.0  0.000213699 1.35307e-05 0.0  0.000233091 6.88132e-06 0.0  0.000241067 -2.84947e-06 0.0  0.000236931 -1.29625e-05 0.0  0.000221237 -2.08225e-05 0.0  0.00019579 -2.33447e-05 0.0  0.000163213 -1.84935e-05 0.0  0.000127613 -5.47841e-06 0.0  9.10019e-05 1.4917e-05 0.0  6.10089e-05 4.10291e-05 0.0  0 1.51683e-06 0.0  0 1.51683e-06 0.0  
            </DataArray>
         </PointData> 
      </Piece>
   </UnstructuredGrid> 
</VTKFile>
