<?xml version="1.0"?>
<VTKFile type="UnstructuredGrid" version="0.1" byte_order="LittleEndian">
   <UnstructuredGrid>
      <Piece NumberOfPoints="63" NumberOfCells="0" > 
         <Points> 
            <DataArray type="Float64" Name="Position" NumberOfComponents="3" format="ascii"> 
               0.000473559  -0.000642344  0  
               0.000408535  -0.000685829  0  
               0.000339552  -0.000722713  0  
               0.000267278  -0.000752639  0  
               0.000192413  -0.000775316  0  
               0.000115682  -0.000790525  0  
               3.78268e-05  -0.00079812  0  
               -4.03976e-05  -0.000798026  0  
               -0.000118234  -0.000790244  0  
               -0.000194929  -0.00077485  0  
               -0.000269739  -0.000751992  0  
               -0.000341941  -0.000721893  0  
               -0.000410835  -0.000684843  0  
               -0.000475754  -0.000641202  0  
               -0.000536069  -0.000591391  0  
               0.000774734  -0.000193183  0  
               0.000755388  -0.000258717  0  
               0.000730494  -0.000322351  0  
               0.000700236  -0.000383617  0  
               0.000664838  -0.000442064  0  
               0.000624558  -0.00049726  0  
               0.000579695  -0.000548799  0  
               0.000530578  -0.000596303  0  
               0.000530559  0.000596286  0  
               0.000579641  0.000548755  0  
               0.000624478  0.000497201  0  
               0.000664741  0.000442002  0  
               0.000700137  0.000383561  0  
               0.000730405  0.000322307  0  
               0.000755323  0.000258689  0  
               0.00077471  0.000193173  0  
               -0.000536069  0.000591391  0  
               -0.000475754  0.000641202  0  
               -0.000410835  0.000684843  0  
               -0.000341941  0.000721893  0  
               -0.000269739  0.000751992  0  
               -0.000194929  0.00077485  0  
               -0.000118234  0.000790244  0  
               -4.03976e-05  0.000798026  0  
               3.78268e-05  0.00079812  0  
               0.000115682  0.000790525  0  
               0.000192413  0.000775316  0  
               0.000267278  0.000752639  0  
               0.000339552  0.000722713  0  
               0.000408535  0.000685829  0  
               0.000473559  0.000642344  0  
               -0.000593089  -0.000533975  0  
               -0.000645857  -0.000469149  0  
               -0.000691532  -0.000399145  0  
               -0.000729611  -0.000324735  0  
               -0.000759672  -0.00024674  0  
               -0.000781385  -0.000166022  0  
               -0.000794509  -8.34719e-05  0  
               -0.0007989  0  0  
               -0.000794509  8.34719e-05  0  
               -0.000781385  0.000166022  0  
               -0.000759672  0.00024674  0  
               -0.000729611  0.000324735  0  
               -0.000691532  0.000399145  0  
               -0.000645857  0.000469149  0  
               -0.000593089  0.000533975  0  
               0.0007915  -8e-05  0  
               0.0007915  8e-05  0  
            </DataArray>
         </Points> 

         <Cells>
            <DataArray type="Int32" Name="connectivity" NumberOfComponents="1" format="ascii">
               
            </DataArray> 
            <DataArray type="Int32" Name="offsets" NumberOfComponents="1" format="ascii">
               
            </DataArray>
            <DataArray type="UInt8"  Name="types" NumberOfComponents="1" format="ascii">
               
            </DataArray>
         </Cells>
         <PointData Scalars="Rank " Vectors="Displacement-Cylinder Force ">
            <DataArray type="UInt32" Name="Rank" NumberOfComponents="1" format="ascii">
               0 0 0 0 0 0 0 0 0 0 0 0 0 0 0 0 0 0 0 0 0 0 0 0 0 0 0 0 0 0 0 0 0 0 0 0 0 0 0 0 0 0 0 0 0 0 0 0 0 0 0 0 0 0 0 0 0 0 0 0 0 0 0 
            </DataArray>
            <DataArray type="Float64" Name="Displacement-Cylinder" NumberOfComponents="3" format="ascii">
               0 6.37141e-07 0.0  0 6.37141e-07 0.0  0 6.37141e-07 0.0  0 6.37141e-07 0.0  0 6.37141e-07 0.0  0 6.37141e-07 0.0  0 6.37141e-07 0.0  0 6.37141e-07 0.0  0 6.37141e-07 0.0  0 6.37141e-07 0.0  0 6.37141e-07 0.0  0 6.37141e-07 0.0  0 6.37141e-07 0.0  0 6.37141e-07 0.0  0 6.37141e-07 0.0  0 6.37141e-07 0.0  0 6.37141e-07 0.0  0 6.37141e-07 0.0  0 6.37141e-07 0.0  0 6.37141e-07 0.0  0 6.37141e-07 0.0  0 6.37141e-07 0.0  0 6.37141e-07 0.0  0 6.37141e-07 0.0  0 6.37141e-07 0.0  0 6.37141e-07 0.0  0 6.37141e-07 0.0  0 6.37141e-07 0.0  0 6.37141e-07 0.0  0 6.37141e-07 0.0  0 6.37141e-07 0.0  0 6.37141e-07 0.0  0 6.37141e-07 0.0  0 6.37141e-07 0.0  0 6.37141e-07 0.0  0 6.37141e-07 0.0  0 6.37141e-07 0.0  0 6.37141e-07 0.0  0 6.37141e-07 0.0  0 6.37141e-07 0.0  0 6.37141e-07 0.0  0 6.37141e-07 0.0  0 6.37141e-07 0.0  0 6.37141e-07 0.0  0 6.37141e-07 0.0  0 6.37141e-07 0.0  0 6.37141e-07 0.0  0 6.37141e-07 0.0  0 6.37141e-07 0.0  0 6.37141e-07 0.0  0 6.37141e-07 0.0  0 6.37141e-07 0.0  0 6.37141e-07 0.0  0 6.37141e-07 0.0  0 6.37141e-07 0.0  0 6.37141e-07 0.0  0 6.37141e-07 0.0  0 6.37141e-07 0.0  0 6.37141e-07 0.0  0 6.37141e-07 0.0  0 6.37141e-07 0.0  0 6.37141e-07 0.0  0 6.37141e-07 0.0  
            </DataArray>
            <DataArray type="Float64" Name="Force" NumberOfComponents="3" format="ascii">
               0.000199474 -2.48078e-05 0.0  0.000193229 2.26133e-05 0.0  6.05051e-05 -0.000128032 0.0  5.38528e-05 -0.000140063 0.0  4.69115e-05 -0.000152572 0.0  3.93803e-05 -0.0001655 0.0  3.07493e-05 -0.000177231 0.0  2.18222e-05 -0.000186024 0.0  1.2428e-05 -0.000190039 0.0  3.4117e-06 -0.000187671 0.0  -3.3432e-06 -0.000177818 0.0  -5.91618e-06 -0.000160256 0.0  -2.76743e-06 -0.000135935 0.0  6.95834e-06 -0.000107233 0.0  2.31842e-05 -7.71815e-05 0.0  8.57661e-05 -2.49049e-05 0.0  8.57104e-05 -3.38569e-05 0.0  8.50092e-05 -4.27733e-05 0.0  8.35242e-05 -5.14801e-05 0.0  8.11591e-05 -5.98746e-05 0.0  7.7909e-05 -6.79293e-05 0.0  7.3908e-05 -7.57325e-05 0.0  6.93612e-05 -8.34802e-05 0.0  5.50898e-05 6.71607e-05 0.0  5.90793e-05 6.05802e-05 0.0  6.31426e-05 5.42492e-05 0.0  6.70694e-05 4.80369e-05 0.0  7.07076e-05 4.1807e-05 0.0  7.39424e-05 3.54227e-05 0.0  7.67174e-05 2.87558e-05 0.0  7.91069e-05 2.18107e-05 0.0  2.79326e-05 7.04404e-05 0.0  1.17558e-05 9.8633e-05 0.0  1.88665e-06 0.00012517 0.0  -1.73624e-06 0.000147165 0.0  3.14754e-09 0.000162308 0.0  5.52299e-06 0.000169795 0.0  1.28625e-05 0.000170062 0.0  2.03634e-05 0.000164243 0.0  2.72553e-05 0.00015426 0.0  3.35395e-05 0.000142112 0.0  3.88956e-05 0.000129437 0.0  4.38154e-05 0.000117489 0.0  4.85988e-05 0.00010602 0.0  5.34298e-05 9.53111e-05 0.0  5.84301e-05 8.52193e-05 0.0  5.10782e-05 -5.08448e-05 0.0  8.02898e-05 -2.38315e-05 0.0  0.000116535 -2.3233e-06 0.0  0.000152173 1.18971e-05 0.0  0.000185327 1.79843e-05 0.0  0.000211855 1.65809e-05 0.0  0.000229167 9.52197e-06 0.0  0.000235396 -1.81367e-07 0.0  0.00022993 -9.97438e-06 0.0  0.000213376 -1.73097e-05 0.0  0.000187601 -1.92044e-05 0.0  0.000155175 -1.38296e-05 0.0  0.00012023 -5.56815e-07 0.0  8.45739e-05 1.97473e-05 0.0  5.58543e-05 4.52777e-05 0.0  0 6.37142e-07 0.0  0 6.37142e-07 0.0  
            </DataArray>
         </PointData> 
      </Piece>
   </UnstructuredGrid> 
</VTKFile>
