<?xml version="1.0"?>
<VTKFile type="UnstructuredGrid" version="0.1" byte_order="LittleEndian">
   <UnstructuredGrid>
      <Piece NumberOfPoints="63" NumberOfCells="0" > 
         <Points> 
            <DataArray type="Float64" Name="Position" NumberOfComponents="3" format="ascii"> 
               0.000473559  -0.000642344  0  
               0.000408535  -0.000685829  0  
               0.000339552  -0.000722713  0  
               0.000267278  -0.000752639  0  
               0.000192413  -0.000775316  0  
               0.000115682  -0.000790525  0  
               3.78268e-05  -0.00079812  0  
               -4.03976e-05  -0.000798026  0  
               -0.000118234  -0.000790244  0  
               -0.000194929  -0.00077485  0  
               -0.000269739  -0.000751992  0  
               -0.000341941  -0.000721893  0  
               -0.000410835  -0.000684843  0  
               -0.000475754  -0.000641202  0  
               -0.000536069  -0.000591391  0  
               0.000774734  -0.000193183  0  
               0.000755388  -0.000258717  0  
               0.000730494  -0.000322351  0  
               0.000700236  -0.000383617  0  
               0.000664838  -0.000442064  0  
               0.000624558  -0.00049726  0  
               0.000579695  -0.000548799  0  
               0.000530578  -0.000596303  0  
               0.000530559  0.000596286  0  
               0.000579641  0.000548755  0  
               0.000624478  0.000497201  0  
               0.000664741  0.000442002  0  
               0.000700137  0.000383561  0  
               0.000730405  0.000322307  0  
               0.000755323  0.000258689  0  
               0.00077471  0.000193173  0  
               -0.000536069  0.000591391  0  
               -0.000475754  0.000641202  0  
               -0.000410835  0.000684843  0  
               -0.000341941  0.000721893  0  
               -0.000269739  0.000751992  0  
               -0.000194929  0.00077485  0  
               -0.000118234  0.000790244  0  
               -4.03976e-05  0.000798026  0  
               3.78268e-05  0.00079812  0  
               0.000115682  0.000790525  0  
               0.000192413  0.000775316  0  
               0.000267278  0.000752639  0  
               0.000339552  0.000722713  0  
               0.000408535  0.000685829  0  
               0.000473559  0.000642344  0  
               -0.000593089  -0.000533975  0  
               -0.000645857  -0.000469149  0  
               -0.000691532  -0.000399145  0  
               -0.000729611  -0.000324735  0  
               -0.000759672  -0.00024674  0  
               -0.000781385  -0.000166022  0  
               -0.000794509  -8.34719e-05  0  
               -0.0007989  0  0  
               -0.000794509  8.34719e-05  0  
               -0.000781385  0.000166022  0  
               -0.000759672  0.00024674  0  
               -0.000729611  0.000324735  0  
               -0.000691532  0.000399145  0  
               -0.000645857  0.000469149  0  
               -0.000593089  0.000533975  0  
               0.0007915  -8e-05  0  
               0.0007915  8e-05  0  
            </DataArray>
         </Points> 

         <Cells>
            <DataArray type="Int32" Name="connectivity" NumberOfComponents="1" format="ascii">
               
            </DataArray> 
            <DataArray type="Int32" Name="offsets" NumberOfComponents="1" format="ascii">
               
            </DataArray>
            <DataArray type="UInt8"  Name="types" NumberOfComponents="1" format="ascii">
               
            </DataArray>
         </Cells>
         <PointData Scalars="Rank " Vectors="Displacement-Cylinder Force ">
            <DataArray type="UInt32" Name="Rank" NumberOfComponents="1" format="ascii">
               0 0 0 0 0 0 0 0 0 0 0 0 0 0 0 0 0 0 0 0 0 0 0 0 0 0 0 0 0 0 0 0 0 0 0 0 0 0 0 0 0 0 0 0 0 0 0 0 0 0 0 0 0 0 0 0 0 0 0 0 0 0 0 
            </DataArray>
            <DataArray type="Float64" Name="Displacement-Cylinder" NumberOfComponents="3" format="ascii">
               0 1.25686e-06 0.0  0 1.25686e-06 0.0  0 1.25686e-06 0.0  0 1.25686e-06 0.0  0 1.25686e-06 0.0  0 1.25686e-06 0.0  0 1.25686e-06 0.0  0 1.25686e-06 0.0  0 1.25686e-06 0.0  0 1.25686e-06 0.0  0 1.25686e-06 0.0  0 1.25686e-06 0.0  0 1.25686e-06 0.0  0 1.25686e-06 0.0  0 1.25686e-06 0.0  0 1.25686e-06 0.0  0 1.25686e-06 0.0  0 1.25686e-06 0.0  0 1.25686e-06 0.0  0 1.25686e-06 0.0  0 1.25686e-06 0.0  0 1.25686e-06 0.0  0 1.25686e-06 0.0  0 1.25686e-06 0.0  0 1.25686e-06 0.0  0 1.25686e-06 0.0  0 1.25686e-06 0.0  0 1.25686e-06 0.0  0 1.25686e-06 0.0  0 1.25686e-06 0.0  0 1.25686e-06 0.0  0 1.25686e-06 0.0  0 1.25686e-06 0.0  0 1.25686e-06 0.0  0 1.25686e-06 0.0  0 1.25686e-06 0.0  0 1.25686e-06 0.0  0 1.25686e-06 0.0  0 1.25686e-06 0.0  0 1.25686e-06 0.0  0 1.25686e-06 0.0  0 1.25686e-06 0.0  0 1.25686e-06 0.0  0 1.25686e-06 0.0  0 1.25686e-06 0.0  0 1.25686e-06 0.0  0 1.25686e-06 0.0  0 1.25686e-06 0.0  0 1.25686e-06 0.0  0 1.25686e-06 0.0  0 1.25686e-06 0.0  0 1.25686e-06 0.0  0 1.25686e-06 0.0  0 1.25686e-06 0.0  0 1.25686e-06 0.0  0 1.25686e-06 0.0  0 1.25686e-06 0.0  0 1.25686e-06 0.0  0 1.25686e-06 0.0  0 1.25686e-06 0.0  0 1.25686e-06 0.0  0 1.25686e-06 0.0  0 1.25686e-06 0.0  
            </DataArray>
            <DataArray type="Float64" Name="Force" NumberOfComponents="3" format="ascii">
               0.000225234 -3.47504e-05 0.0  0.000228399 1.94722e-05 0.0  5.54024e-05 -0.000120592 0.0  5.01271e-05 -0.000133838 0.0  4.44892e-05 -0.000147567 0.0  3.81787e-05 -0.000161939 0.0  3.05806e-05 -0.000175486 0.0  2.21768e-05 -0.000186256 0.0  1.29985e-05 -0.000192109 0.0  3.95759e-06 -0.000191121 0.0  -3.01476e-06 -0.000182164 0.0  -5.82596e-06 -0.000164962 0.0  -2.81006e-06 -0.000140508 0.0  6.95547e-06 -0.000111293 0.0  2.33781e-05 -8.05659e-05 0.0  9.24845e-05 -2.78481e-05 0.0  8.94921e-05 -3.50328e-05 0.0  8.58767e-05 -4.18461e-05 0.0  8.15992e-05 -4.83081e-05 0.0  7.68036e-05 -5.46855e-05 0.0  7.17573e-05 -6.12456e-05 0.0  6.67396e-05 -6.81831e-05 0.0  6.20594e-05 -7.56415e-05 0.0  8.24428e-05 9.76813e-05 0.0  8.75686e-05 8.85617e-05 0.0  9.19031e-05 7.9276e-05 0.0  9.50704e-05 6.93417e-05 0.0  9.70319e-05 5.8819e-05 0.0  9.79731e-05 4.78688e-05 0.0  9.82864e-05 3.67484e-05 0.0  9.80018e-05 2.56675e-05 0.0  2.26061e-05 8.07995e-05 0.0  5.58398e-06 0.000113199 0.0  -4.72256e-06 0.000144665 0.0  -7.98449e-06 0.000171819 0.0  -5.04452e-06 0.000192173 0.0  2.57417e-06 0.000204561 0.0  1.29381e-05 0.000208997 0.0  2.39342e-05 0.000206596 0.0  3.46261e-05 0.000198728 0.0  4.51147e-05 0.000187226 0.0  5.44764e-05 0.000174038 0.0  6.31127e-05 0.000160718 0.0  7.15091e-05 0.000147831 0.0  7.96979e-05 0.000135262 0.0  8.75562e-05 0.000122685 0.0  5.18346e-05 -5.3627e-05 0.0  8.15465e-05 -2.59039e-05 0.0  0.000118655 -3.75188e-06 0.0  0.000155171 1.09512e-05 0.0  0.000189196 1.73169e-05 0.0  0.000216426 1.59851e-05 0.0  0.000234178 8.82966e-06 0.0  0.000240487 -1.01887e-06 0.0  0.000234689 -1.0889e-05 0.0  0.000217373 -1.81207e-05 0.0  0.000190395 -1.95739e-05 0.0  0.000156421 -1.32571e-05 0.0  0.000119645 1.59175e-06 0.0  8.21028e-05 2.4189e-05 0.0  5.15613e-05 5.27997e-05 0.0  0 1.25686e-06 0.0  0 1.25686e-06 0.0  
            </DataArray>
         </PointData> 
      </Piece>
   </UnstructuredGrid> 
</VTKFile>
