<?xml version="1.0"?>
<VTKFile type="UnstructuredGrid" version="0.1" byte_order="LittleEndian">
   <UnstructuredGrid>
      <Piece NumberOfPoints="63" NumberOfCells="0" > 
         <Points> 
            <DataArray type="Float64" Name="Position" NumberOfComponents="3" format="ascii"> 
               0.000473559  -0.000642344  0  
               0.000408535  -0.000685829  0  
               0.000339552  -0.000722713  0  
               0.000267278  -0.000752639  0  
               0.000192413  -0.000775316  0  
               0.000115682  -0.000790525  0  
               3.78268e-05  -0.00079812  0  
               -4.03976e-05  -0.000798026  0  
               -0.000118234  -0.000790244  0  
               -0.000194929  -0.00077485  0  
               -0.000269739  -0.000751992  0  
               -0.000341941  -0.000721893  0  
               -0.000410835  -0.000684843  0  
               -0.000475754  -0.000641202  0  
               -0.000536069  -0.000591391  0  
               0.000774734  -0.000193183  0  
               0.000755388  -0.000258717  0  
               0.000730494  -0.000322351  0  
               0.000700236  -0.000383617  0  
               0.000664838  -0.000442064  0  
               0.000624558  -0.00049726  0  
               0.000579695  -0.000548799  0  
               0.000530578  -0.000596303  0  
               0.000530559  0.000596286  0  
               0.000579641  0.000548755  0  
               0.000624478  0.000497201  0  
               0.000664741  0.000442002  0  
               0.000700137  0.000383561  0  
               0.000730405  0.000322307  0  
               0.000755323  0.000258689  0  
               0.00077471  0.000193173  0  
               -0.000536069  0.000591391  0  
               -0.000475754  0.000641202  0  
               -0.000410835  0.000684843  0  
               -0.000341941  0.000721893  0  
               -0.000269739  0.000751992  0  
               -0.000194929  0.00077485  0  
               -0.000118234  0.000790244  0  
               -4.03976e-05  0.000798026  0  
               3.78268e-05  0.00079812  0  
               0.000115682  0.000790525  0  
               0.000192413  0.000775316  0  
               0.000267278  0.000752639  0  
               0.000339552  0.000722713  0  
               0.000408535  0.000685829  0  
               0.000473559  0.000642344  0  
               -0.000593089  -0.000533975  0  
               -0.000645857  -0.000469149  0  
               -0.000691532  -0.000399145  0  
               -0.000729611  -0.000324735  0  
               -0.000759672  -0.00024674  0  
               -0.000781385  -0.000166022  0  
               -0.000794509  -8.34719e-05  0  
               -0.0007989  0  0  
               -0.000794509  8.34719e-05  0  
               -0.000781385  0.000166022  0  
               -0.000759672  0.00024674  0  
               -0.000729611  0.000324735  0  
               -0.000691532  0.000399145  0  
               -0.000645857  0.000469149  0  
               -0.000593089  0.000533975  0  
               0.0007915  -8e-05  0  
               0.0007915  8e-05  0  
            </DataArray>
         </Points> 

         <Cells>
            <DataArray type="Int32" Name="connectivity" NumberOfComponents="1" format="ascii">
               
            </DataArray> 
            <DataArray type="Int32" Name="offsets" NumberOfComponents="1" format="ascii">
               
            </DataArray>
            <DataArray type="UInt8"  Name="types" NumberOfComponents="1" format="ascii">
               
            </DataArray>
         </Cells>
         <PointData Scalars="Rank " Vectors="Displacement-Cylinder Force ">
            <DataArray type="UInt32" Name="Rank" NumberOfComponents="1" format="ascii">
               0 0 0 0 0 0 0 0 0 0 0 0 0 0 0 0 0 0 0 0 0 0 0 0 0 0 0 0 0 0 0 0 0 0 0 0 0 0 0 0 0 0 0 0 0 0 0 0 0 0 0 0 0 0 0 0 0 0 0 0 0 0 0 
            </DataArray>
            <DataArray type="Float64" Name="Displacement-Cylinder" NumberOfComponents="3" format="ascii">
               0 5.42863e-08 0.0  0 5.42863e-08 0.0  0 5.42863e-08 0.0  0 5.42863e-08 0.0  0 5.42863e-08 0.0  0 5.42863e-08 0.0  0 5.42863e-08 0.0  0 5.42863e-08 0.0  0 5.42863e-08 0.0  0 5.42863e-08 0.0  0 5.42863e-08 0.0  0 5.42863e-08 0.0  0 5.42863e-08 0.0  0 5.42863e-08 0.0  0 5.42863e-08 0.0  0 5.42863e-08 0.0  0 5.42863e-08 0.0  0 5.42863e-08 0.0  0 5.42863e-08 0.0  0 5.42863e-08 0.0  0 5.42863e-08 0.0  0 5.42863e-08 0.0  0 5.42863e-08 0.0  0 5.42863e-08 0.0  0 5.42863e-08 0.0  0 5.42863e-08 0.0  0 5.42863e-08 0.0  0 5.42863e-08 0.0  0 5.42863e-08 0.0  0 5.42863e-08 0.0  0 5.42863e-08 0.0  0 5.42863e-08 0.0  0 5.42863e-08 0.0  0 5.42863e-08 0.0  0 5.42863e-08 0.0  0 5.42863e-08 0.0  0 5.42863e-08 0.0  0 5.42863e-08 0.0  0 5.42863e-08 0.0  0 5.42863e-08 0.0  0 5.42863e-08 0.0  0 5.42863e-08 0.0  0 5.42863e-08 0.0  0 5.42863e-08 0.0  0 5.42863e-08 0.0  0 5.42863e-08 0.0  0 5.42863e-08 0.0  0 5.42863e-08 0.0  0 5.42863e-08 0.0  0 5.42863e-08 0.0  0 5.42863e-08 0.0  0 5.42863e-08 0.0  0 5.42863e-08 0.0  0 5.42863e-08 0.0  0 5.42863e-08 0.0  0 5.42863e-08 0.0  0 5.42863e-08 0.0  0 5.42863e-08 0.0  0 5.42863e-08 0.0  0 5.42863e-08 0.0  0 5.42863e-08 0.0  0 5.42863e-08 0.0  0 5.42863e-08 0.0  
            </DataArray>
            <DataArray type="Float64" Name="Force" NumberOfComponents="3" format="ascii">
               0.000163506 -3.65098e-05 0.0  0.000163148 3.6338e-05 0.0  8.28581e-05 -0.000168829 0.0  7.70241e-05 -0.000188029 0.0  6.96748e-05 -0.000207934 0.0  5.99398e-05 -0.00022657 0.0  4.75277e-05 -0.000241823 0.0  3.40404e-05 -0.000250887 0.0  1.98335e-05 -0.000251605 0.0  6.63432e-06 -0.000243101 0.0  -2.89324e-06 -0.00022482 0.0  -6.48029e-06 -0.000197508 0.0  -2.46469e-06 -0.000163053 0.0  9.87915e-06 -0.0001247 0.0  2.99523e-05 -8.62665e-05 0.0  8.1845e-05 -3.72577e-05 0.0  8.88901e-05 -4.91732e-05 0.0  9.41019e-05 -6.01079e-05 0.0  9.61985e-05 -6.95212e-05 0.0  9.53173e-05 -7.77774e-05 0.0  9.21738e-05 -8.56558e-05 0.0  8.80807e-05 -9.4014e-05 0.0  8.42958e-05 -0.00010407 0.0  8.41815e-05 0.000103917 0.0  8.80288e-05 9.39576e-05 0.0  9.21438e-05 8.56846e-05 0.0  9.52588e-05 7.7858e-05 0.0  9.60961e-05 6.9622e-05 0.0  9.39429e-05 6.01987e-05 0.0  8.8677e-05 4.92379e-05 0.0  8.16228e-05 3.73009e-05 0.0  3.02588e-05 8.59922e-05 0.0  1.01328e-05 0.000124504 0.0  -2.26655e-06 0.000162969 0.0  -6.33225e-06 0.00019755 0.0  -2.78491e-06 0.000224971 0.0  6.71179e-06 0.000243313 0.0  1.98816e-05 0.000251808 0.0  3.40459e-05 0.000251022 0.0  4.74711e-05 0.000241858 0.0  5.98115e-05 0.000226497 0.0  6.94912e-05 0.000207764 0.0  7.67804e-05 0.000187835 0.0  8.2577e-05 0.000168604 0.0  8.74337e-05 0.000150357 0.0  9.17805e-05 0.000132597 0.0  6.3793e-05 -5.34762e-05 0.0  9.86454e-05 -2.12628e-05 0.0  0.000141068 3.48986e-06 0.0  0.000182614 1.91688e-05 0.0  0.000220734 2.50365e-05 0.0  0.000251041 2.20564e-05 0.0  0.000270572 1.25048e-05 0.0  0.000277341 -6.85723e-08 0.0  0.000270677 -1.2651e-05 0.0  0.000251248 -2.22292e-05 0.0  0.000221023 -2.52539e-05 0.0  0.000182971 -1.94372e-05 0.0  0.000141454 -3.80145e-06 0.0  9.90427e-05 2.09207e-05 0.0  6.41709e-05 5.31383e-05 0.0  0 5.4285e-08 0.0  0 5.4285e-08 0.0  
            </DataArray>
         </PointData> 
      </Piece>
   </UnstructuredGrid> 
</VTKFile>
