<?xml version="1.0"?>
<VTKFile type="UnstructuredGrid" version="0.1" byte_order="LittleEndian">
   <UnstructuredGrid>
      <Piece NumberOfPoints="63" NumberOfCells="0" > 
         <Points> 
            <DataArray type="Float64" Name="Position" NumberOfComponents="3" format="ascii"> 
               0.000473559  -0.000642344  0  
               0.000408535  -0.000685829  0  
               0.000339552  -0.000722713  0  
               0.000267278  -0.000752639  0  
               0.000192413  -0.000775316  0  
               0.000115682  -0.000790525  0  
               3.78268e-05  -0.00079812  0  
               -4.03976e-05  -0.000798026  0  
               -0.000118234  -0.000790244  0  
               -0.000194929  -0.00077485  0  
               -0.000269739  -0.000751992  0  
               -0.000341941  -0.000721893  0  
               -0.000410835  -0.000684843  0  
               -0.000475754  -0.000641202  0  
               -0.000536069  -0.000591391  0  
               0.000774734  -0.000193183  0  
               0.000755388  -0.000258717  0  
               0.000730494  -0.000322351  0  
               0.000700236  -0.000383617  0  
               0.000664838  -0.000442064  0  
               0.000624558  -0.00049726  0  
               0.000579695  -0.000548799  0  
               0.000530578  -0.000596303  0  
               0.000530559  0.000596286  0  
               0.000579641  0.000548755  0  
               0.000624478  0.000497201  0  
               0.000664741  0.000442002  0  
               0.000700137  0.000383561  0  
               0.000730405  0.000322307  0  
               0.000755323  0.000258689  0  
               0.00077471  0.000193173  0  
               -0.000536069  0.000591391  0  
               -0.000475754  0.000641202  0  
               -0.000410835  0.000684843  0  
               -0.000341941  0.000721893  0  
               -0.000269739  0.000751992  0  
               -0.000194929  0.00077485  0  
               -0.000118234  0.000790244  0  
               -4.03976e-05  0.000798026  0  
               3.78268e-05  0.00079812  0  
               0.000115682  0.000790525  0  
               0.000192413  0.000775316  0  
               0.000267278  0.000752639  0  
               0.000339552  0.000722713  0  
               0.000408535  0.000685829  0  
               0.000473559  0.000642344  0  
               -0.000593089  -0.000533975  0  
               -0.000645857  -0.000469149  0  
               -0.000691532  -0.000399145  0  
               -0.000729611  -0.000324735  0  
               -0.000759672  -0.00024674  0  
               -0.000781385  -0.000166022  0  
               -0.000794509  -8.34719e-05  0  
               -0.0007989  0  0  
               -0.000794509  8.34719e-05  0  
               -0.000781385  0.000166022  0  
               -0.000759672  0.00024674  0  
               -0.000729611  0.000324735  0  
               -0.000691532  0.000399145  0  
               -0.000645857  0.000469149  0  
               -0.000593089  0.000533975  0  
               0.0007915  -8e-05  0  
               0.0007915  8e-05  0  
            </DataArray>
         </Points> 

         <Cells>
            <DataArray type="Int32" Name="connectivity" NumberOfComponents="1" format="ascii">
               
            </DataArray> 
            <DataArray type="Int32" Name="offsets" NumberOfComponents="1" format="ascii">
               
            </DataArray>
            <DataArray type="UInt8"  Name="types" NumberOfComponents="1" format="ascii">
               
            </DataArray>
         </Cells>
         <PointData Scalars="Rank " Vectors="Displacement-Cylinder Force ">
            <DataArray type="UInt32" Name="Rank" NumberOfComponents="1" format="ascii">
               0 0 0 0 0 0 0 0 0 0 0 0 0 0 0 0 0 0 0 0 0 0 0 0 0 0 0 0 0 0 0 0 0 0 0 0 0 0 0 0 0 0 0 0 0 0 0 0 0 0 0 0 0 0 0 0 0 0 0 0 0 0 0 
            </DataArray>
            <DataArray type="Float64" Name="Displacement-Cylinder" NumberOfComponents="3" format="ascii">
               0 1.1154e-06 0.0  0 1.1154e-06 0.0  0 1.1154e-06 0.0  0 1.1154e-06 0.0  0 1.1154e-06 0.0  0 1.1154e-06 0.0  0 1.1154e-06 0.0  0 1.1154e-06 0.0  0 1.1154e-06 0.0  0 1.1154e-06 0.0  0 1.1154e-06 0.0  0 1.1154e-06 0.0  0 1.1154e-06 0.0  0 1.1154e-06 0.0  0 1.1154e-06 0.0  0 1.1154e-06 0.0  0 1.1154e-06 0.0  0 1.1154e-06 0.0  0 1.1154e-06 0.0  0 1.1154e-06 0.0  0 1.1154e-06 0.0  0 1.1154e-06 0.0  0 1.1154e-06 0.0  0 1.1154e-06 0.0  0 1.1154e-06 0.0  0 1.1154e-06 0.0  0 1.1154e-06 0.0  0 1.1154e-06 0.0  0 1.1154e-06 0.0  0 1.1154e-06 0.0  0 1.1154e-06 0.0  0 1.1154e-06 0.0  0 1.1154e-06 0.0  0 1.1154e-06 0.0  0 1.1154e-06 0.0  0 1.1154e-06 0.0  0 1.1154e-06 0.0  0 1.1154e-06 0.0  0 1.1154e-06 0.0  0 1.1154e-06 0.0  0 1.1154e-06 0.0  0 1.1154e-06 0.0  0 1.1154e-06 0.0  0 1.1154e-06 0.0  0 1.1154e-06 0.0  0 1.1154e-06 0.0  0 1.1154e-06 0.0  0 1.1154e-06 0.0  0 1.1154e-06 0.0  0 1.1154e-06 0.0  0 1.1154e-06 0.0  0 1.1154e-06 0.0  0 1.1154e-06 0.0  0 1.1154e-06 0.0  0 1.1154e-06 0.0  0 1.1154e-06 0.0  0 1.1154e-06 0.0  0 1.1154e-06 0.0  0 1.1154e-06 0.0  0 1.1154e-06 0.0  0 1.1154e-06 0.0  0 1.1154e-06 0.0  0 1.1154e-06 0.0  
            </DataArray>
            <DataArray type="Float64" Name="Force" NumberOfComponents="3" format="ascii">
               0.000247946 -4.89334e-05 0.0  0.00022857 5.53112e-06 0.0  6.86022e-05 -0.000147109 0.0  6.12821e-05 -0.000161941 0.0  5.33759e-05 -0.000177149 0.0  4.44777e-05 -0.000192739 0.0  3.40485e-05 -0.000206796 0.0  2.28893e-05 -0.000217301 0.0  1.09843e-05 -0.000222134 0.0  -6.33393e-07 -0.000219525 0.0  -9.79504e-06 -0.000208372 0.0  -1.43459e-05 -0.000188557 0.0  -1.25842e-05 -0.000161237 0.0  -3.56427e-06 -0.000129053 0.0  1.2553e-05 -9.54385e-05 0.0  0.000106498 -3.55873e-05 0.0  0.000105186 -4.39692e-05 0.0  0.000102721 -5.2248e-05 0.0  9.90181e-05 -6.01971e-05 0.0  9.43167e-05 -6.80513e-05 0.0  8.89544e-05 -7.60571e-05 0.0  8.3312e-05 -8.44908e-05 0.0  7.76329e-05 -9.33374e-05 0.0  6.59254e-05 7.8935e-05 0.0  7.01506e-05 7.10545e-05 0.0  7.3988e-05 6.29723e-05 0.0  7.7485e-05 5.43954e-05 0.0  8.07004e-05 4.55081e-05 0.0  8.40581e-05 3.64115e-05 0.0  8.75584e-05 2.7173e-05 0.0  9.1145e-05 1.77318e-05 0.0  3.33363e-05 6.58701e-05 0.0  1.60292e-05 9.5276e-05 0.0  5.03341e-06 0.000123594 0.0  5.40312e-07 0.000147729 0.0  1.73868e-06 0.000165304 0.0  7.13513e-06 0.000175338 0.0  1.48557e-05 0.000178014 0.0  2.30122e-05 0.000174472 0.0  3.08047e-05 0.000166259 0.0  3.84315e-05 0.000155207 0.0  4.51338e-05 0.000143103 0.0  5.13912e-05 0.000131439 0.0  5.76031e-05 0.000120416 0.0  6.39267e-05 0.000109862 0.0  7.00899e-05 9.93942e-05 0.0  4.05242e-05 -6.66246e-05 0.0  7.07716e-05 -3.6135e-05 0.0  0.000108944 -1.14992e-05 0.0  0.000146897 5.32977e-06 0.0  0.000182665 1.34144e-05 0.0  0.000211862 1.33424e-05 0.0  0.000231727 6.9283e-06 0.0  0.00024022 -2.66629e-06 0.0  0.000236614 -1.27509e-05 0.0  0.000221437 -2.0687e-05 0.0  0.000196467 -2.33761e-05 0.0  0.0001643 -1.87715e-05 0.0  0.000129024 -6.06285e-06 0.0  9.26371e-05 1.39943e-05 0.0  6.27637e-05 3.97633e-05 0.0  0 1.1154e-06 0.0  0 1.1154e-06 0.0  
            </DataArray>
         </PointData> 
      </Piece>
   </UnstructuredGrid> 
</VTKFile>
