<?xml version="1.0"?>
<VTKFile type="UnstructuredGrid" version="0.1" byte_order="LittleEndian">
   <UnstructuredGrid>
      <Piece NumberOfPoints="63" NumberOfCells="0" > 
         <Points> 
            <DataArray type="Float64" Name="Position" NumberOfComponents="3" format="ascii"> 
               0.000473559  -0.000642344  0  
               0.000408535  -0.000685829  0  
               0.000339552  -0.000722713  0  
               0.000267278  -0.000752639  0  
               0.000192413  -0.000775316  0  
               0.000115682  -0.000790525  0  
               3.78268e-05  -0.00079812  0  
               -4.03976e-05  -0.000798026  0  
               -0.000118234  -0.000790244  0  
               -0.000194929  -0.00077485  0  
               -0.000269739  -0.000751992  0  
               -0.000341941  -0.000721893  0  
               -0.000410835  -0.000684843  0  
               -0.000475754  -0.000641202  0  
               -0.000536069  -0.000591391  0  
               0.000774734  -0.000193183  0  
               0.000755388  -0.000258717  0  
               0.000730494  -0.000322351  0  
               0.000700236  -0.000383617  0  
               0.000664838  -0.000442064  0  
               0.000624558  -0.00049726  0  
               0.000579695  -0.000548799  0  
               0.000530578  -0.000596303  0  
               0.000530559  0.000596286  0  
               0.000579641  0.000548755  0  
               0.000624478  0.000497201  0  
               0.000664741  0.000442002  0  
               0.000700137  0.000383561  0  
               0.000730405  0.000322307  0  
               0.000755323  0.000258689  0  
               0.00077471  0.000193173  0  
               -0.000536069  0.000591391  0  
               -0.000475754  0.000641202  0  
               -0.000410835  0.000684843  0  
               -0.000341941  0.000721893  0  
               -0.000269739  0.000751992  0  
               -0.000194929  0.00077485  0  
               -0.000118234  0.000790244  0  
               -4.03976e-05  0.000798026  0  
               3.78268e-05  0.00079812  0  
               0.000115682  0.000790525  0  
               0.000192413  0.000775316  0  
               0.000267278  0.000752639  0  
               0.000339552  0.000722713  0  
               0.000408535  0.000685829  0  
               0.000473559  0.000642344  0  
               -0.000593089  -0.000533975  0  
               -0.000645857  -0.000469149  0  
               -0.000691532  -0.000399145  0  
               -0.000729611  -0.000324735  0  
               -0.000759672  -0.00024674  0  
               -0.000781385  -0.000166022  0  
               -0.000794509  -8.34719e-05  0  
               -0.0007989  0  0  
               -0.000794509  8.34719e-05  0  
               -0.000781385  0.000166022  0  
               -0.000759672  0.00024674  0  
               -0.000729611  0.000324735  0  
               -0.000691532  0.000399145  0  
               -0.000645857  0.000469149  0  
               -0.000593089  0.000533975  0  
               0.0007915  -8e-05  0  
               0.0007915  8e-05  0  
            </DataArray>
         </Points> 

         <Cells>
            <DataArray type="Int32" Name="connectivity" NumberOfComponents="1" format="ascii">
               
            </DataArray> 
            <DataArray type="Int32" Name="offsets" NumberOfComponents="1" format="ascii">
               
            </DataArray>
            <DataArray type="UInt8"  Name="types" NumberOfComponents="1" format="ascii">
               
            </DataArray>
         </Cells>
         <PointData Scalars="Rank " Vectors="Displacement-Cylinder Force ">
            <DataArray type="UInt32" Name="Rank" NumberOfComponents="1" format="ascii">
               0 0 0 0 0 0 0 0 0 0 0 0 0 0 0 0 0 0 0 0 0 0 0 0 0 0 0 0 0 0 0 0 0 0 0 0 0 0 0 0 0 0 0 0 0 0 0 0 0 0 0 0 0 0 0 0 0 0 0 0 0 0 0 
            </DataArray>
            <DataArray type="Float64" Name="Displacement-Cylinder" NumberOfComponents="3" format="ascii">
               0 1.54845e-06 0.0  0 1.54845e-06 0.0  0 1.54845e-06 0.0  0 1.54845e-06 0.0  0 1.54845e-06 0.0  0 1.54845e-06 0.0  0 1.54845e-06 0.0  0 1.54845e-06 0.0  0 1.54845e-06 0.0  0 1.54845e-06 0.0  0 1.54845e-06 0.0  0 1.54845e-06 0.0  0 1.54845e-06 0.0  0 1.54845e-06 0.0  0 1.54845e-06 0.0  0 1.54845e-06 0.0  0 1.54845e-06 0.0  0 1.54845e-06 0.0  0 1.54845e-06 0.0  0 1.54845e-06 0.0  0 1.54845e-06 0.0  0 1.54845e-06 0.0  0 1.54845e-06 0.0  0 1.54845e-06 0.0  0 1.54845e-06 0.0  0 1.54845e-06 0.0  0 1.54845e-06 0.0  0 1.54845e-06 0.0  0 1.54845e-06 0.0  0 1.54845e-06 0.0  0 1.54845e-06 0.0  0 1.54845e-06 0.0  0 1.54845e-06 0.0  0 1.54845e-06 0.0  0 1.54845e-06 0.0  0 1.54845e-06 0.0  0 1.54845e-06 0.0  0 1.54845e-06 0.0  0 1.54845e-06 0.0  0 1.54845e-06 0.0  0 1.54845e-06 0.0  0 1.54845e-06 0.0  0 1.54845e-06 0.0  0 1.54845e-06 0.0  0 1.54845e-06 0.0  0 1.54845e-06 0.0  0 1.54845e-06 0.0  0 1.54845e-06 0.0  0 1.54845e-06 0.0  0 1.54845e-06 0.0  0 1.54845e-06 0.0  0 1.54845e-06 0.0  0 1.54845e-06 0.0  0 1.54845e-06 0.0  0 1.54845e-06 0.0  0 1.54845e-06 0.0  0 1.54845e-06 0.0  0 1.54845e-06 0.0  0 1.54845e-06 0.0  0 1.54845e-06 0.0  0 1.54845e-06 0.0  0 1.54845e-06 0.0  0 1.54845e-06 0.0  
            </DataArray>
            <DataArray type="Float64" Name="Force" NumberOfComponents="3" format="ascii">
               0.000215372 -1.9648e-05 0.0  0.000234789 3.59353e-05 0.0  4.93563e-05 -0.000107707 0.0  4.4866e-05 -0.000119746 0.0  4.01764e-05 -0.000132354 0.0  3.49713e-05 -0.000145713 0.0  2.86703e-05 -0.000158471 0.0  2.16692e-05 -0.000168824 0.0  1.39725e-05 -0.000174693 0.0  6.41395e-06 -0.000174145 0.0  7.825e-07 -0.00016605 0.0  -9.0075e-07 -0.000150067 0.0  2.98281e-06 -0.000127093 0.0  1.33243e-05 -9.9524e-05 0.0  3.00787e-05 -7.04398e-05 0.0  8.53312e-05 -2.14354e-05 0.0  8.13595e-05 -2.86048e-05 0.0  7.72745e-05 -3.52803e-05 0.0  7.28452e-05 -4.15223e-05 0.0  6.81979e-05 -4.76182e-05 0.0  6.35419e-05 -5.38474e-05 0.0  5.90919e-05 -6.03941e-05 0.0  5.50162e-05 -6.73188e-05 0.0  8.89734e-05 0.000105366 0.0  9.48185e-05 9.58511e-05 0.0  9.99987e-05 8.64886e-05 0.0  0.000103943 7.67653e-05 0.0  0.000106417 6.65556e-05 0.0  0.000107274 5.57965e-05 0.0  0.000106597 4.45933e-05 0.0  0.000104737 3.33407e-05 0.0  1.68301e-05 9.0007e-05 0.0  -7.88153e-10 0.00012404 0.0  -9.84189e-06 0.000157132 0.0  -1.23536e-05 0.0001858 0.0  -8.39377e-06 0.00020742 0.0  4.66454e-07 0.000220738 0.0  1.22179e-05 0.000225681 0.0  2.46146e-05 0.000223329 0.0  3.66353e-05 0.000215058 0.0  4.83324e-05 0.00020278 0.0  5.87024e-05 0.000188533 0.0  6.81491e-05 0.000174031 0.0  7.71908e-05 0.000159928 0.0  8.59427e-05 0.000146084 0.0  9.43563e-05 0.000132267 0.0  5.89238e-05 -4.45527e-05 0.0  8.84956e-05 -1.84809e-05 0.0  0.000125055 2.13834e-06 0.0  0.000160783 1.54942e-05 0.0  0.000193797 2.07364e-05 0.0  0.000219862 1.85545e-05 0.0  0.00023634 1.08814e-05 0.0  0.00024132 8.10747e-07 0.0  0.000234182 -9.0055e-06 0.0  0.000215555 -1.58835e-05 0.0  0.000187353 -1.66415e-05 0.0  0.000152285 -9.34376e-06 0.0  0.000114623 6.72641e-06 0.0  7.64146e-05 3.07554e-05 0.0  4.55865e-05 6.09418e-05 0.0  0 1.54844e-06 0.0  0 1.54844e-06 0.0  
            </DataArray>
         </PointData> 
      </Piece>
   </UnstructuredGrid> 
</VTKFile>
