<?xml version="1.0"?>
<VTKFile type="UnstructuredGrid" version="0.1" byte_order="LittleEndian">
   <UnstructuredGrid>
      <Piece NumberOfPoints="63" NumberOfCells="0" > 
         <Points> 
            <DataArray type="Float64" Name="Position" NumberOfComponents="3" format="ascii"> 
               0.000473559  -0.000642344  0  
               0.000408535  -0.000685829  0  
               0.000339552  -0.000722713  0  
               0.000267278  -0.000752639  0  
               0.000192413  -0.000775316  0  
               0.000115682  -0.000790525  0  
               3.78268e-05  -0.00079812  0  
               -4.03976e-05  -0.000798026  0  
               -0.000118234  -0.000790244  0  
               -0.000194929  -0.00077485  0  
               -0.000269739  -0.000751992  0  
               -0.000341941  -0.000721893  0  
               -0.000410835  -0.000684843  0  
               -0.000475754  -0.000641202  0  
               -0.000536069  -0.000591391  0  
               0.000774734  -0.000193183  0  
               0.000755388  -0.000258717  0  
               0.000730494  -0.000322351  0  
               0.000700236  -0.000383617  0  
               0.000664838  -0.000442064  0  
               0.000624558  -0.00049726  0  
               0.000579695  -0.000548799  0  
               0.000530578  -0.000596303  0  
               0.000530559  0.000596286  0  
               0.000579641  0.000548755  0  
               0.000624478  0.000497201  0  
               0.000664741  0.000442002  0  
               0.000700137  0.000383561  0  
               0.000730405  0.000322307  0  
               0.000755323  0.000258689  0  
               0.00077471  0.000193173  0  
               -0.000536069  0.000591391  0  
               -0.000475754  0.000641202  0  
               -0.000410835  0.000684843  0  
               -0.000341941  0.000721893  0  
               -0.000269739  0.000751992  0  
               -0.000194929  0.00077485  0  
               -0.000118234  0.000790244  0  
               -4.03976e-05  0.000798026  0  
               3.78268e-05  0.00079812  0  
               0.000115682  0.000790525  0  
               0.000192413  0.000775316  0  
               0.000267278  0.000752639  0  
               0.000339552  0.000722713  0  
               0.000408535  0.000685829  0  
               0.000473559  0.000642344  0  
               -0.000593089  -0.000533975  0  
               -0.000645857  -0.000469149  0  
               -0.000691532  -0.000399145  0  
               -0.000729611  -0.000324735  0  
               -0.000759672  -0.00024674  0  
               -0.000781385  -0.000166022  0  
               -0.000794509  -8.34719e-05  0  
               -0.0007989  0  0  
               -0.000794509  8.34719e-05  0  
               -0.000781385  0.000166022  0  
               -0.000759672  0.00024674  0  
               -0.000729611  0.000324735  0  
               -0.000691532  0.000399145  0  
               -0.000645857  0.000469149  0  
               -0.000593089  0.000533975  0  
               0.0007915  -8e-05  0  
               0.0007915  8e-05  0  
            </DataArray>
         </Points> 

         <Cells>
            <DataArray type="Int32" Name="connectivity" NumberOfComponents="1" format="ascii">
               
            </DataArray> 
            <DataArray type="Int32" Name="offsets" NumberOfComponents="1" format="ascii">
               
            </DataArray>
            <DataArray type="UInt8"  Name="types" NumberOfComponents="1" format="ascii">
               
            </DataArray>
         </Cells>
         <PointData Scalars="Rank " Vectors="Displacement-Cylinder Force ">
            <DataArray type="UInt32" Name="Rank" NumberOfComponents="1" format="ascii">
               0 0 0 0 0 0 0 0 0 0 0 0 0 0 0 0 0 0 0 0 0 0 0 0 0 0 0 0 0 0 0 0 0 0 0 0 0 0 0 0 0 0 0 0 0 0 0 0 0 0 0 0 0 0 0 0 0 0 0 0 0 0 0 
            </DataArray>
            <DataArray type="Float64" Name="Displacement-Cylinder" NumberOfComponents="3" format="ascii">
               0 8.91712e-07 0.0  0 8.91712e-07 0.0  0 8.91712e-07 0.0  0 8.91712e-07 0.0  0 8.91712e-07 0.0  0 8.91712e-07 0.0  0 8.91712e-07 0.0  0 8.91712e-07 0.0  0 8.91712e-07 0.0  0 8.91712e-07 0.0  0 8.91712e-07 0.0  0 8.91712e-07 0.0  0 8.91712e-07 0.0  0 8.91712e-07 0.0  0 8.91712e-07 0.0  0 8.91712e-07 0.0  0 8.91712e-07 0.0  0 8.91712e-07 0.0  0 8.91712e-07 0.0  0 8.91712e-07 0.0  0 8.91712e-07 0.0  0 8.91712e-07 0.0  0 8.91712e-07 0.0  0 8.91712e-07 0.0  0 8.91712e-07 0.0  0 8.91712e-07 0.0  0 8.91712e-07 0.0  0 8.91712e-07 0.0  0 8.91712e-07 0.0  0 8.91712e-07 0.0  0 8.91712e-07 0.0  0 8.91712e-07 0.0  0 8.91712e-07 0.0  0 8.91712e-07 0.0  0 8.91712e-07 0.0  0 8.91712e-07 0.0  0 8.91712e-07 0.0  0 8.91712e-07 0.0  0 8.91712e-07 0.0  0 8.91712e-07 0.0  0 8.91712e-07 0.0  0 8.91712e-07 0.0  0 8.91712e-07 0.0  0 8.91712e-07 0.0  0 8.91712e-07 0.0  0 8.91712e-07 0.0  0 8.91712e-07 0.0  0 8.91712e-07 0.0  0 8.91712e-07 0.0  0 8.91712e-07 0.0  0 8.91712e-07 0.0  0 8.91712e-07 0.0  0 8.91712e-07 0.0  0 8.91712e-07 0.0  0 8.91712e-07 0.0  0 8.91712e-07 0.0  0 8.91712e-07 0.0  0 8.91712e-07 0.0  0 8.91712e-07 0.0  0 8.91712e-07 0.0  0 8.91712e-07 0.0  0 8.91712e-07 0.0  0 8.91712e-07 0.0  
            </DataArray>
            <DataArray type="Float64" Name="Force" NumberOfComponents="3" format="ascii">
               0.000218775 -1.19644e-05 0.0  0.000242741 4.40133e-05 0.0  4.93876e-05 -0.000106866 0.0  4.46562e-05 -0.000118239 0.0  3.97478e-05 -0.000130217 0.0  3.4454e-05 -0.000142915 0.0  2.81719e-05 -0.000154998 0.0  2.13386e-05 -0.000164736 0.0  1.39139e-05 -0.000170144 0.0  6.68518e-06 -0.000169375 0.0  1.39082e-06 -0.000161295 0.0  -1.38898e-08 -0.000145555 0.0  4.04235e-06 -0.000123014 0.0  1.44293e-05 -9.60061e-05 0.0  3.11134e-05 -6.7512e-05 0.0  8.58567e-05 -1.87018e-05 0.0  8.14233e-05 -2.63486e-05 0.0  7.69779e-05 -3.34524e-05 0.0  7.25157e-05 -4.03088e-05 0.0  6.8059e-05 -4.69507e-05 0.0  6.36631e-05 -5.35978e-05 0.0  5.93951e-05 -6.03822e-05 0.0  5.53689e-05 -6.73383e-05 0.0  8.79564e-05 0.000104497 0.0  9.40371e-05 9.51297e-05 0.0  9.96379e-05 8.60471e-05 0.0  0.000104233 7.68185e-05 0.0  0.000107568 6.73175e-05 0.0  0.000109293 5.73312e-05 0.0  0.000109364 4.6862e-05 0.0  0.000108022 3.62635e-05 0.0  1.33796e-05 9.43255e-05 0.0  -3.00293e-06 0.000128493 0.0  -1.23342e-05 0.000161556 0.0  -1.43334e-05 0.00019005 0.0  -9.88487e-06 0.000211329 0.0  -5.99135e-07 0.000224157 0.0  1.14682e-05 0.000228507 0.0  2.40777e-05 0.000225468 0.0  3.61911e-05 0.000216526 0.0  4.78818e-05 0.000203652 0.0  5.81521e-05 0.000188881 0.0  6.74483e-05 0.000174037 0.0  7.62811e-05 0.000159577 0.0  8.48662e-05 0.00014533 0.0  9.32327e-05 0.000131245 0.0  5.97385e-05 -4.20803e-05 0.0  8.90077e-05 -1.65729e-05 0.0  0.000125041 3.54677e-06 0.0  0.000160156 1.65145e-05 0.0  0.000192478 2.15045e-05 0.0  0.000217835 1.923e-05 0.0  0.000233623 1.16441e-05 0.0  0.000237976 1.80276e-06 0.0  0.000230302 -7.67316e-06 0.0  0.000211255 -1.41091e-05 0.0  0.00018278 -1.43364e-05 0.0  0.00014759 -6.4763e-06 0.0  0.000109982 1.01393e-05 0.0  7.19675e-05 3.46588e-05 0.0  4.15437e-05 6.52332e-05 0.0  0 8.91706e-07 0.0  0 8.91706e-07 0.0  
            </DataArray>
         </PointData> 
      </Piece>
   </UnstructuredGrid> 
</VTKFile>
