<?xml version="1.0"?>
<VTKFile type="UnstructuredGrid" version="0.1" byte_order="LittleEndian">
   <UnstructuredGrid>
      <Piece NumberOfPoints="63" NumberOfCells="0" > 
         <Points> 
            <DataArray type="Float64" Name="Position" NumberOfComponents="3" format="ascii"> 
               0.000473559  -0.000642344  0  
               0.000408535  -0.000685829  0  
               0.000339552  -0.000722713  0  
               0.000267278  -0.000752639  0  
               0.000192413  -0.000775316  0  
               0.000115682  -0.000790525  0  
               3.78268e-05  -0.00079812  0  
               -4.03976e-05  -0.000798026  0  
               -0.000118234  -0.000790244  0  
               -0.000194929  -0.00077485  0  
               -0.000269739  -0.000751992  0  
               -0.000341941  -0.000721893  0  
               -0.000410835  -0.000684843  0  
               -0.000475754  -0.000641202  0  
               -0.000536069  -0.000591391  0  
               0.000774734  -0.000193183  0  
               0.000755388  -0.000258717  0  
               0.000730494  -0.000322351  0  
               0.000700236  -0.000383617  0  
               0.000664838  -0.000442064  0  
               0.000624558  -0.00049726  0  
               0.000579695  -0.000548799  0  
               0.000530578  -0.000596303  0  
               0.000530559  0.000596286  0  
               0.000579641  0.000548755  0  
               0.000624478  0.000497201  0  
               0.000664741  0.000442002  0  
               0.000700137  0.000383561  0  
               0.000730405  0.000322307  0  
               0.000755323  0.000258689  0  
               0.00077471  0.000193173  0  
               -0.000536069  0.000591391  0  
               -0.000475754  0.000641202  0  
               -0.000410835  0.000684843  0  
               -0.000341941  0.000721893  0  
               -0.000269739  0.000751992  0  
               -0.000194929  0.00077485  0  
               -0.000118234  0.000790244  0  
               -4.03976e-05  0.000798026  0  
               3.78268e-05  0.00079812  0  
               0.000115682  0.000790525  0  
               0.000192413  0.000775316  0  
               0.000267278  0.000752639  0  
               0.000339552  0.000722713  0  
               0.000408535  0.000685829  0  
               0.000473559  0.000642344  0  
               -0.000593089  -0.000533975  0  
               -0.000645857  -0.000469149  0  
               -0.000691532  -0.000399145  0  
               -0.000729611  -0.000324735  0  
               -0.000759672  -0.00024674  0  
               -0.000781385  -0.000166022  0  
               -0.000794509  -8.34719e-05  0  
               -0.0007989  0  0  
               -0.000794509  8.34719e-05  0  
               -0.000781385  0.000166022  0  
               -0.000759672  0.00024674  0  
               -0.000729611  0.000324735  0  
               -0.000691532  0.000399145  0  
               -0.000645857  0.000469149  0  
               -0.000593089  0.000533975  0  
               0.0007915  -8e-05  0  
               0.0007915  8e-05  0  
            </DataArray>
         </Points> 

         <Cells>
            <DataArray type="Int32" Name="connectivity" NumberOfComponents="1" format="ascii">
               
            </DataArray> 
            <DataArray type="Int32" Name="offsets" NumberOfComponents="1" format="ascii">
               
            </DataArray>
            <DataArray type="UInt8"  Name="types" NumberOfComponents="1" format="ascii">
               
            </DataArray>
         </Cells>
         <PointData Scalars="Rank " Vectors="Displacement-Cylinder Force ">
            <DataArray type="UInt32" Name="Rank" NumberOfComponents="1" format="ascii">
               0 0 0 0 0 0 0 0 0 0 0 0 0 0 0 0 0 0 0 0 0 0 0 0 0 0 0 0 0 0 0 0 0 0 0 0 0 0 0 0 0 0 0 0 0 0 0 0 0 0 0 0 0 0 0 0 0 0 0 0 0 0 0 
            </DataArray>
            <DataArray type="Float64" Name="Displacement-Cylinder" NumberOfComponents="3" format="ascii">
               0 1.35674e-07 0.0  0 1.35674e-07 0.0  0 1.35674e-07 0.0  0 1.35674e-07 0.0  0 1.35674e-07 0.0  0 1.35674e-07 0.0  0 1.35674e-07 0.0  0 1.35674e-07 0.0  0 1.35674e-07 0.0  0 1.35674e-07 0.0  0 1.35674e-07 0.0  0 1.35674e-07 0.0  0 1.35674e-07 0.0  0 1.35674e-07 0.0  0 1.35674e-07 0.0  0 1.35674e-07 0.0  0 1.35674e-07 0.0  0 1.35674e-07 0.0  0 1.35674e-07 0.0  0 1.35674e-07 0.0  0 1.35674e-07 0.0  0 1.35674e-07 0.0  0 1.35674e-07 0.0  0 1.35674e-07 0.0  0 1.35674e-07 0.0  0 1.35674e-07 0.0  0 1.35674e-07 0.0  0 1.35674e-07 0.0  0 1.35674e-07 0.0  0 1.35674e-07 0.0  0 1.35674e-07 0.0  0 1.35674e-07 0.0  0 1.35674e-07 0.0  0 1.35674e-07 0.0  0 1.35674e-07 0.0  0 1.35674e-07 0.0  0 1.35674e-07 0.0  0 1.35674e-07 0.0  0 1.35674e-07 0.0  0 1.35674e-07 0.0  0 1.35674e-07 0.0  0 1.35674e-07 0.0  0 1.35674e-07 0.0  0 1.35674e-07 0.0  0 1.35674e-07 0.0  0 1.35674e-07 0.0  0 1.35674e-07 0.0  0 1.35674e-07 0.0  0 1.35674e-07 0.0  0 1.35674e-07 0.0  0 1.35674e-07 0.0  0 1.35674e-07 0.0  0 1.35674e-07 0.0  0 1.35674e-07 0.0  0 1.35674e-07 0.0  0 1.35674e-07 0.0  0 1.35674e-07 0.0  0 1.35674e-07 0.0  0 1.35674e-07 0.0  0 1.35674e-07 0.0  0 1.35674e-07 0.0  0 1.35674e-07 0.0  0 1.35674e-07 0.0  
            </DataArray>
            <DataArray type="Float64" Name="Force" NumberOfComponents="3" format="ascii">
               0.000163584 -2.32876e-05 0.0  0.000164275 2.43815e-05 0.0  4.94665e-05 -0.00010683 0.0  4.51611e-05 -0.000118658 0.0  4.06229e-05 -0.000131161 0.0  3.55612e-05 -0.000144422 0.0  2.93887e-05 -0.000156886 0.0  2.26274e-05 -0.00016676 0.0  1.52354e-05 -0.000172012 0.0  8.06006e-06 -0.000170829 0.0  2.96833e-06 -0.000162085 0.0  1.95668e-06 -0.000145521 0.0  6.61819e-06 -0.00012209 0.0  1.7826e-05 -9.42146e-05 0.0  3.54742e-05 -6.50336e-05 0.0  7.06251e-05 -2.29672e-05 0.0  7.06881e-05 -3.02163e-05 0.0  7.00674e-05 -3.69995e-05 0.0  6.84249e-05 -4.32189e-05 0.0  6.58303e-05 -4.90911e-05 0.0  6.2495e-05 -5.48719e-05 0.0  5.87162e-05 -6.08429e-05 0.0  5.48273e-05 -6.71306e-05 0.0  5.54004e-05 6.77145e-05 0.0  5.93467e-05 6.14097e-05 0.0  6.31741e-05 5.54303e-05 0.0  6.65418e-05 4.96419e-05 0.0  6.91473e-05 4.37647e-05 0.0  7.07675e-05 3.75371e-05 0.0  7.13399e-05 3.07454e-05 0.0  7.11784e-05 2.35036e-05 0.0  3.46616e-05 6.62177e-05 0.0  1.70464e-05 9.55636e-05 0.0  5.9037e-06 0.00012357 0.0  1.33346e-06 0.000147078 0.0  2.45612e-06 0.000163648 0.0  7.66312e-06 0.00017233 0.0  1.49401e-05 0.000173403 0.0  2.2429e-05 0.000168008 0.0  2.92852e-05 0.000158001 0.0  3.55314e-05 0.000145443 0.0  4.0684e-05 0.000132127 0.0  4.53307e-05 0.000119562 0.0  4.97449e-05 0.000107647 0.0  5.41483e-05 9.64134e-05 0.0  5.88773e-05 8.58299e-05 0.0  6.56646e-05 -3.88666e-05 0.0  9.63171e-05 -1.31219e-05 0.0  0.000133911 6.96227e-06 0.0  0.000170667 1.9591e-05 0.0  0.000204672 2.39284e-05 0.0  0.000231718 2.06606e-05 0.0  0.000249168 1.16929e-05 0.0  0.000255132 1.12893e-07 0.0  0.000248989 -1.14494e-05 0.0  0.000231367 -2.03609e-05 0.0  0.000204163 -2.35296e-05 0.0  0.000170021 -1.90589e-05 0.0  0.000133159 -6.26849e-06 0.0  9.54878e-05 1.39993e-05 0.0  6.48102e-05 3.99367e-05 0.0  0 1.35673e-07 0.0  0 1.35673e-07 0.0  
            </DataArray>
         </PointData> 
      </Piece>
   </UnstructuredGrid> 
</VTKFile>
