<?xml version="1.0"?>
<VTKFile type="UnstructuredGrid" version="0.1" byte_order="LittleEndian">
   <UnstructuredGrid>
      <Piece NumberOfPoints="63" NumberOfCells="0" > 
         <Points> 
            <DataArray type="Float64" Name="Position" NumberOfComponents="3" format="ascii"> 
               0.000473559  -0.000642344  0  
               0.000408535  -0.000685829  0  
               0.000339552  -0.000722713  0  
               0.000267278  -0.000752639  0  
               0.000192413  -0.000775316  0  
               0.000115682  -0.000790525  0  
               3.78268e-05  -0.00079812  0  
               -4.03976e-05  -0.000798026  0  
               -0.000118234  -0.000790244  0  
               -0.000194929  -0.00077485  0  
               -0.000269739  -0.000751992  0  
               -0.000341941  -0.000721893  0  
               -0.000410835  -0.000684843  0  
               -0.000475754  -0.000641202  0  
               -0.000536069  -0.000591391  0  
               0.000774734  -0.000193183  0  
               0.000755388  -0.000258717  0  
               0.000730494  -0.000322351  0  
               0.000700236  -0.000383617  0  
               0.000664838  -0.000442064  0  
               0.000624558  -0.00049726  0  
               0.000579695  -0.000548799  0  
               0.000530578  -0.000596303  0  
               0.000530559  0.000596286  0  
               0.000579641  0.000548755  0  
               0.000624478  0.000497201  0  
               0.000664741  0.000442002  0  
               0.000700137  0.000383561  0  
               0.000730405  0.000322307  0  
               0.000755323  0.000258689  0  
               0.00077471  0.000193173  0  
               -0.000536069  0.000591391  0  
               -0.000475754  0.000641202  0  
               -0.000410835  0.000684843  0  
               -0.000341941  0.000721893  0  
               -0.000269739  0.000751992  0  
               -0.000194929  0.00077485  0  
               -0.000118234  0.000790244  0  
               -4.03976e-05  0.000798026  0  
               3.78268e-05  0.00079812  0  
               0.000115682  0.000790525  0  
               0.000192413  0.000775316  0  
               0.000267278  0.000752639  0  
               0.000339552  0.000722713  0  
               0.000408535  0.000685829  0  
               0.000473559  0.000642344  0  
               -0.000593089  -0.000533975  0  
               -0.000645857  -0.000469149  0  
               -0.000691532  -0.000399145  0  
               -0.000729611  -0.000324735  0  
               -0.000759672  -0.00024674  0  
               -0.000781385  -0.000166022  0  
               -0.000794509  -8.34719e-05  0  
               -0.0007989  0  0  
               -0.000794509  8.34719e-05  0  
               -0.000781385  0.000166022  0  
               -0.000759672  0.00024674  0  
               -0.000729611  0.000324735  0  
               -0.000691532  0.000399145  0  
               -0.000645857  0.000469149  0  
               -0.000593089  0.000533975  0  
               0.0007915  -8e-05  0  
               0.0007915  8e-05  0  
            </DataArray>
         </Points> 

         <Cells>
            <DataArray type="Int32" Name="connectivity" NumberOfComponents="1" format="ascii">
               
            </DataArray> 
            <DataArray type="Int32" Name="offsets" NumberOfComponents="1" format="ascii">
               
            </DataArray>
            <DataArray type="UInt8"  Name="types" NumberOfComponents="1" format="ascii">
               
            </DataArray>
         </Cells>
         <PointData Scalars="Rank " Vectors="Displacement-Cylinder Force ">
            <DataArray type="UInt32" Name="Rank" NumberOfComponents="1" format="ascii">
               0 0 0 0 0 0 0 0 0 0 0 0 0 0 0 0 0 0 0 0 0 0 0 0 0 0 0 0 0 0 0 0 0 0 0 0 0 0 0 0 0 0 0 0 0 0 0 0 0 0 0 0 0 0 0 0 0 0 0 0 0 0 0 
            </DataArray>
            <DataArray type="Float64" Name="Displacement-Cylinder" NumberOfComponents="3" format="ascii">
               0 8.50719e-07 0.0  0 8.50719e-07 0.0  0 8.50719e-07 0.0  0 8.50719e-07 0.0  0 8.50719e-07 0.0  0 8.50719e-07 0.0  0 8.50719e-07 0.0  0 8.50719e-07 0.0  0 8.50719e-07 0.0  0 8.50719e-07 0.0  0 8.50719e-07 0.0  0 8.50719e-07 0.0  0 8.50719e-07 0.0  0 8.50719e-07 0.0  0 8.50719e-07 0.0  0 8.50719e-07 0.0  0 8.50719e-07 0.0  0 8.50719e-07 0.0  0 8.50719e-07 0.0  0 8.50719e-07 0.0  0 8.50719e-07 0.0  0 8.50719e-07 0.0  0 8.50719e-07 0.0  0 8.50719e-07 0.0  0 8.50719e-07 0.0  0 8.50719e-07 0.0  0 8.50719e-07 0.0  0 8.50719e-07 0.0  0 8.50719e-07 0.0  0 8.50719e-07 0.0  0 8.50719e-07 0.0  0 8.50719e-07 0.0  0 8.50719e-07 0.0  0 8.50719e-07 0.0  0 8.50719e-07 0.0  0 8.50719e-07 0.0  0 8.50719e-07 0.0  0 8.50719e-07 0.0  0 8.50719e-07 0.0  0 8.50719e-07 0.0  0 8.50719e-07 0.0  0 8.50719e-07 0.0  0 8.50719e-07 0.0  0 8.50719e-07 0.0  0 8.50719e-07 0.0  0 8.50719e-07 0.0  0 8.50719e-07 0.0  0 8.50719e-07 0.0  0 8.50719e-07 0.0  0 8.50719e-07 0.0  0 8.50719e-07 0.0  0 8.50719e-07 0.0  0 8.50719e-07 0.0  0 8.50719e-07 0.0  0 8.50719e-07 0.0  0 8.50719e-07 0.0  0 8.50719e-07 0.0  0 8.50719e-07 0.0  0 8.50719e-07 0.0  0 8.50719e-07 0.0  0 8.50719e-07 0.0  0 8.50719e-07 0.0  0 8.50719e-07 0.0  
            </DataArray>
            <DataArray type="Float64" Name="Force" NumberOfComponents="3" format="ascii">
               0.00022058 -7.86601e-06 0.0  0.000243701 4.7137e-05 0.0  5.11508e-05 -0.000109506 0.0  4.60116e-05 -0.000120516 0.0  4.07172e-05 -0.000132168 0.0  3.50394e-05 -0.000144537 0.0  2.84375e-05 -0.00015611 0.0  2.14293e-05 -0.000165269 0.0  1.39186e-05 -0.000170095 0.0  6.68069e-06 -0.000168839 0.0  1.45828e-06 -0.000160375 0.0  1.61389e-07 -0.000144378 0.0  4.32538e-06 -0.000121716 0.0  1.48001e-05 -9.46962e-05 0.0  3.15359e-05 -6.62717e-05 0.0  8.66633e-05 -1.72947e-05 0.0  8.23352e-05 -2.54662e-05 0.0  7.80369e-05 -3.31532e-05 0.0  7.38213e-05 -4.06281e-05 0.0  6.96946e-05 -4.79694e-05 0.0  6.56329e-05 -5.52394e-05 0.0  6.16213e-05 -6.24628e-05 0.0  5.76166e-05 -6.96409e-05 0.0  8.33223e-05 9.94115e-05 0.0  8.92984e-05 9.04679e-05 0.0  9.49632e-05 8.18723e-05 0.0  9.99369e-05 7.33313e-05 0.0  0.000103868 6.46595e-05 0.0  0.000106421 5.56195e-05 0.0  0.000107456 4.61208e-05 0.0  0.000107111 3.6462e-05 0.0  1.33352e-05 9.42168e-05 0.0  -2.84563e-06 0.000127898 0.0  -1.20113e-05 0.000160333 0.0  -1.3933e-05 0.000188086 0.0  -9.51722e-06 0.000208529 0.0  -4.03849e-07 0.000220473 0.0  1.13227e-05 0.000223968 0.0  2.34687e-05 0.000220123 0.0  3.50082e-05 0.000210547 0.0  4.60499e-05 0.000197266 0.0  5.56328e-05 0.00018228 0.0  6.42748e-05 0.000167477 0.0  7.24113e-05 0.000153106 0.0  8.04025e-05 0.000138943 0.0  8.82856e-05 0.000125074 0.0  6.01659e-05 -4.09007e-05 0.0  8.94275e-05 -1.55379e-05 0.0  0.000125332 4.4132e-06 0.0  0.000160281 1.72233e-05 0.0  0.000192387 2.20846e-05 0.0  0.000217514 1.97275e-05 0.0  0.000233076 1.21176e-05 0.0  0.000237234 2.29386e-06 0.0  0.000229414 -7.13995e-06 0.0  0.000210282 -1.3518e-05 0.0  0.000181801 -1.36875e-05 0.0  0.000146682 -5.80548e-06 0.0  0.000109229 1.07634e-05 0.0  7.14203e-05 3.51415e-05 0.0  4.12825e-05 6.54494e-05 0.0  0 8.50714e-07 0.0  0 8.50714e-07 0.0  
            </DataArray>
         </PointData> 
      </Piece>
   </UnstructuredGrid> 
</VTKFile>
