<?xml version="1.0"?>
<VTKFile type="UnstructuredGrid" version="0.1" byte_order="LittleEndian">
   <UnstructuredGrid>
      <Piece NumberOfPoints="63" NumberOfCells="0" > 
         <Points> 
            <DataArray type="Float64" Name="Position" NumberOfComponents="3" format="ascii"> 
               0.000473559  -0.000642344  0  
               0.000408535  -0.000685829  0  
               0.000339552  -0.000722713  0  
               0.000267278  -0.000752639  0  
               0.000192413  -0.000775316  0  
               0.000115682  -0.000790525  0  
               3.78268e-05  -0.00079812  0  
               -4.03976e-05  -0.000798026  0  
               -0.000118234  -0.000790244  0  
               -0.000194929  -0.00077485  0  
               -0.000269739  -0.000751992  0  
               -0.000341941  -0.000721893  0  
               -0.000410835  -0.000684843  0  
               -0.000475754  -0.000641202  0  
               -0.000536069  -0.000591391  0  
               0.000774734  -0.000193183  0  
               0.000755388  -0.000258717  0  
               0.000730494  -0.000322351  0  
               0.000700236  -0.000383617  0  
               0.000664838  -0.000442064  0  
               0.000624558  -0.00049726  0  
               0.000579695  -0.000548799  0  
               0.000530578  -0.000596303  0  
               0.000530559  0.000596286  0  
               0.000579641  0.000548755  0  
               0.000624478  0.000497201  0  
               0.000664741  0.000442002  0  
               0.000700137  0.000383561  0  
               0.000730405  0.000322307  0  
               0.000755323  0.000258689  0  
               0.00077471  0.000193173  0  
               -0.000536069  0.000591391  0  
               -0.000475754  0.000641202  0  
               -0.000410835  0.000684843  0  
               -0.000341941  0.000721893  0  
               -0.000269739  0.000751992  0  
               -0.000194929  0.00077485  0  
               -0.000118234  0.000790244  0  
               -4.03976e-05  0.000798026  0  
               3.78268e-05  0.00079812  0  
               0.000115682  0.000790525  0  
               0.000192413  0.000775316  0  
               0.000267278  0.000752639  0  
               0.000339552  0.000722713  0  
               0.000408535  0.000685829  0  
               0.000473559  0.000642344  0  
               -0.000593089  -0.000533975  0  
               -0.000645857  -0.000469149  0  
               -0.000691532  -0.000399145  0  
               -0.000729611  -0.000324735  0  
               -0.000759672  -0.00024674  0  
               -0.000781385  -0.000166022  0  
               -0.000794509  -8.34719e-05  0  
               -0.0007989  0  0  
               -0.000794509  8.34719e-05  0  
               -0.000781385  0.000166022  0  
               -0.000759672  0.00024674  0  
               -0.000729611  0.000324735  0  
               -0.000691532  0.000399145  0  
               -0.000645857  0.000469149  0  
               -0.000593089  0.000533975  0  
               0.0007915  -8e-05  0  
               0.0007915  8e-05  0  
            </DataArray>
         </Points> 

         <Cells>
            <DataArray type="Int32" Name="connectivity" NumberOfComponents="1" format="ascii">
               
            </DataArray> 
            <DataArray type="Int32" Name="offsets" NumberOfComponents="1" format="ascii">
               
            </DataArray>
            <DataArray type="UInt8"  Name="types" NumberOfComponents="1" format="ascii">
               
            </DataArray>
         </Cells>
         <PointData Scalars="Rank " Vectors="Displacement-Cylinder Force ">
            <DataArray type="UInt32" Name="Rank" NumberOfComponents="1" format="ascii">
               0 0 0 0 0 0 0 0 0 0 0 0 0 0 0 0 0 0 0 0 0 0 0 0 0 0 0 0 0 0 0 0 0 0 0 0 0 0 0 0 0 0 0 0 0 0 0 0 0 0 0 0 0 0 0 0 0 0 0 0 0 0 0 
            </DataArray>
            <DataArray type="Float64" Name="Displacement-Cylinder" NumberOfComponents="3" format="ascii">
               0 1.07033e-06 0.0  0 1.07033e-06 0.0  0 1.07033e-06 0.0  0 1.07033e-06 0.0  0 1.07033e-06 0.0  0 1.07033e-06 0.0  0 1.07033e-06 0.0  0 1.07033e-06 0.0  0 1.07033e-06 0.0  0 1.07033e-06 0.0  0 1.07033e-06 0.0  0 1.07033e-06 0.0  0 1.07033e-06 0.0  0 1.07033e-06 0.0  0 1.07033e-06 0.0  0 1.07033e-06 0.0  0 1.07033e-06 0.0  0 1.07033e-06 0.0  0 1.07033e-06 0.0  0 1.07033e-06 0.0  0 1.07033e-06 0.0  0 1.07033e-06 0.0  0 1.07033e-06 0.0  0 1.07033e-06 0.0  0 1.07033e-06 0.0  0 1.07033e-06 0.0  0 1.07033e-06 0.0  0 1.07033e-06 0.0  0 1.07033e-06 0.0  0 1.07033e-06 0.0  0 1.07033e-06 0.0  0 1.07033e-06 0.0  0 1.07033e-06 0.0  0 1.07033e-06 0.0  0 1.07033e-06 0.0  0 1.07033e-06 0.0  0 1.07033e-06 0.0  0 1.07033e-06 0.0  0 1.07033e-06 0.0  0 1.07033e-06 0.0  0 1.07033e-06 0.0  0 1.07033e-06 0.0  0 1.07033e-06 0.0  0 1.07033e-06 0.0  0 1.07033e-06 0.0  0 1.07033e-06 0.0  0 1.07033e-06 0.0  0 1.07033e-06 0.0  0 1.07033e-06 0.0  0 1.07033e-06 0.0  0 1.07033e-06 0.0  0 1.07033e-06 0.0  0 1.07033e-06 0.0  0 1.07033e-06 0.0  0 1.07033e-06 0.0  0 1.07033e-06 0.0  0 1.07033e-06 0.0  0 1.07033e-06 0.0  0 1.07033e-06 0.0  0 1.07033e-06 0.0  0 1.07033e-06 0.0  0 1.07033e-06 0.0  0 1.07033e-06 0.0  
            </DataArray>
            <DataArray type="Float64" Name="Force" NumberOfComponents="3" format="ascii">
               0.000252983 -5.20765e-05 0.0  0.000227548 3.88075e-06 0.0  7.30225e-05 -0.000154658 0.0  6.5031e-05 -0.000169463 0.0  5.64719e-05 -0.000184744 0.0  4.68766e-05 -0.000200226 0.0  3.57087e-05 -0.000213927 0.0  2.3962e-05 -0.000223805 0.0  1.15442e-05 -0.000227794 0.0  -4.79814e-07 -0.000224268 0.0  -9.86424e-06 -0.000212142 0.0  -1.44878e-05 -0.0001914 0.0  -1.2686e-05 -0.000163256 0.0  -3.54392e-06 -0.000130397 0.0  1.27316e-05 -9.62615e-05 0.0  0.00011067 -3.82342e-05 0.0  0.000110402 -4.75291e-05 0.0  0.000108705 -5.66592e-05 0.0  0.000105466 -6.53156e-05 0.0  0.000100916 -7.36892e-05 0.0  9.5465e-05 -8.20769e-05 0.0  8.953e-05 -9.0701e-05 0.0  8.34167e-05 -9.97858e-05 0.0  5.9671e-05 7.17533e-05 0.0  6.36905e-05 6.43172e-05 0.0  6.7567e-05 5.66786e-05 0.0  7.14343e-05 4.8904e-05 0.0  7.55107e-05 4.10301e-05 0.0  7.97641e-05 3.29936e-05 0.0  8.42639e-05 2.4859e-05 0.0  8.89027e-05 1.62111e-05 0.0  3.32652e-05 6.48168e-05 0.0  1.61117e-05 9.36414e-05 0.0  5.25425e-06 0.000121186 0.0  7.96519e-07 0.00014443 0.0  1.90166e-06 0.000161026 0.0  7.04323e-06 0.000170056 0.0  1.43155e-05 0.000171797 0.0  2.1923e-05 0.00016739 0.0  2.90781e-05 0.000158533 0.0  3.59324e-05 0.000147132 0.0  4.18669e-05 0.000134826 0.0  4.74132e-05 0.000123231 0.0  5.28163e-05 0.000112273 0.0  5.82993e-05 0.000101693 0.0  6.36532e-05 9.12193e-05 0.0  4.0892e-05 -6.71404e-05 0.0  7.12897e-05 -3.64237e-05 0.0  0.000109543 -1.16841e-05 0.0  0.000147507 5.16396e-06 0.0  0.000183196 1.32205e-05 0.0  0.000212246 1.31032e-05 0.0  0.000231911 6.64377e-06 0.0  0.000240179 -2.97007e-06 0.0  0.000236354 -1.30393e-05 0.0  0.000220992 -2.09364e-05 0.0  0.000195901 -2.35938e-05 0.0  0.000163687 -1.89852e-05 0.0  0.00012846 -6.33126e-06 0.0  9.21894e-05 1.35769e-05 0.0  6.24894e-05 3.90624e-05 0.0  0 1.07033e-06 0.0  0 1.07033e-06 0.0  
            </DataArray>
         </PointData> 
      </Piece>
   </UnstructuredGrid> 
</VTKFile>
