<?xml version="1.0"?>
<VTKFile type="UnstructuredGrid" version="0.1" byte_order="LittleEndian">
   <UnstructuredGrid>
      <Piece NumberOfPoints="63" NumberOfCells="0" > 
         <Points> 
            <DataArray type="Float64" Name="Position" NumberOfComponents="3" format="ascii"> 
               0.000473559  -0.000642344  0  
               0.000408535  -0.000685829  0  
               0.000339552  -0.000722713  0  
               0.000267278  -0.000752639  0  
               0.000192413  -0.000775316  0  
               0.000115682  -0.000790525  0  
               3.78268e-05  -0.00079812  0  
               -4.03976e-05  -0.000798026  0  
               -0.000118234  -0.000790244  0  
               -0.000194929  -0.00077485  0  
               -0.000269739  -0.000751992  0  
               -0.000341941  -0.000721893  0  
               -0.000410835  -0.000684843  0  
               -0.000475754  -0.000641202  0  
               -0.000536069  -0.000591391  0  
               0.000774734  -0.000193183  0  
               0.000755388  -0.000258717  0  
               0.000730494  -0.000322351  0  
               0.000700236  -0.000383617  0  
               0.000664838  -0.000442064  0  
               0.000624558  -0.00049726  0  
               0.000579695  -0.000548799  0  
               0.000530578  -0.000596303  0  
               0.000530559  0.000596286  0  
               0.000579641  0.000548755  0  
               0.000624478  0.000497201  0  
               0.000664741  0.000442002  0  
               0.000700137  0.000383561  0  
               0.000730405  0.000322307  0  
               0.000755323  0.000258689  0  
               0.00077471  0.000193173  0  
               -0.000536069  0.000591391  0  
               -0.000475754  0.000641202  0  
               -0.000410835  0.000684843  0  
               -0.000341941  0.000721893  0  
               -0.000269739  0.000751992  0  
               -0.000194929  0.00077485  0  
               -0.000118234  0.000790244  0  
               -4.03976e-05  0.000798026  0  
               3.78268e-05  0.00079812  0  
               0.000115682  0.000790525  0  
               0.000192413  0.000775316  0  
               0.000267278  0.000752639  0  
               0.000339552  0.000722713  0  
               0.000408535  0.000685829  0  
               0.000473559  0.000642344  0  
               -0.000593089  -0.000533975  0  
               -0.000645857  -0.000469149  0  
               -0.000691532  -0.000399145  0  
               -0.000729611  -0.000324735  0  
               -0.000759672  -0.00024674  0  
               -0.000781385  -0.000166022  0  
               -0.000794509  -8.34719e-05  0  
               -0.0007989  0  0  
               -0.000794509  8.34719e-05  0  
               -0.000781385  0.000166022  0  
               -0.000759672  0.00024674  0  
               -0.000729611  0.000324735  0  
               -0.000691532  0.000399145  0  
               -0.000645857  0.000469149  0  
               -0.000593089  0.000533975  0  
               0.0007915  -8e-05  0  
               0.0007915  8e-05  0  
            </DataArray>
         </Points> 

         <Cells>
            <DataArray type="Int32" Name="connectivity" NumberOfComponents="1" format="ascii">
               
            </DataArray> 
            <DataArray type="Int32" Name="offsets" NumberOfComponents="1" format="ascii">
               
            </DataArray>
            <DataArray type="UInt8"  Name="types" NumberOfComponents="1" format="ascii">
               
            </DataArray>
         </Cells>
         <PointData Scalars="Rank " Vectors="Displacement-Cylinder Force ">
            <DataArray type="UInt32" Name="Rank" NumberOfComponents="1" format="ascii">
               0 0 0 0 0 0 0 0 0 0 0 0 0 0 0 0 0 0 0 0 0 0 0 0 0 0 0 0 0 0 0 0 0 0 0 0 0 0 0 0 0 0 0 0 0 0 0 0 0 0 0 0 0 0 0 0 0 0 0 0 0 0 0 
            </DataArray>
            <DataArray type="Float64" Name="Displacement-Cylinder" NumberOfComponents="3" format="ascii">
               0 1.3464e-06 0.0  0 1.3464e-06 0.0  0 1.3464e-06 0.0  0 1.3464e-06 0.0  0 1.3464e-06 0.0  0 1.3464e-06 0.0  0 1.3464e-06 0.0  0 1.3464e-06 0.0  0 1.3464e-06 0.0  0 1.3464e-06 0.0  0 1.3464e-06 0.0  0 1.3464e-06 0.0  0 1.3464e-06 0.0  0 1.3464e-06 0.0  0 1.3464e-06 0.0  0 1.3464e-06 0.0  0 1.3464e-06 0.0  0 1.3464e-06 0.0  0 1.3464e-06 0.0  0 1.3464e-06 0.0  0 1.3464e-06 0.0  0 1.3464e-06 0.0  0 1.3464e-06 0.0  0 1.3464e-06 0.0  0 1.3464e-06 0.0  0 1.3464e-06 0.0  0 1.3464e-06 0.0  0 1.3464e-06 0.0  0 1.3464e-06 0.0  0 1.3464e-06 0.0  0 1.3464e-06 0.0  0 1.3464e-06 0.0  0 1.3464e-06 0.0  0 1.3464e-06 0.0  0 1.3464e-06 0.0  0 1.3464e-06 0.0  0 1.3464e-06 0.0  0 1.3464e-06 0.0  0 1.3464e-06 0.0  0 1.3464e-06 0.0  0 1.3464e-06 0.0  0 1.3464e-06 0.0  0 1.3464e-06 0.0  0 1.3464e-06 0.0  0 1.3464e-06 0.0  0 1.3464e-06 0.0  0 1.3464e-06 0.0  0 1.3464e-06 0.0  0 1.3464e-06 0.0  0 1.3464e-06 0.0  0 1.3464e-06 0.0  0 1.3464e-06 0.0  0 1.3464e-06 0.0  0 1.3464e-06 0.0  0 1.3464e-06 0.0  0 1.3464e-06 0.0  0 1.3464e-06 0.0  0 1.3464e-06 0.0  0 1.3464e-06 0.0  0 1.3464e-06 0.0  0 1.3464e-06 0.0  0 1.3464e-06 0.0  0 1.3464e-06 0.0  
            </DataArray>
            <DataArray type="Float64" Name="Force" NumberOfComponents="3" format="ascii">
               0.000216755 -2.45365e-05 0.0  0.000231391 3.05681e-05 0.0  5.08385e-05 -0.000111036 0.0  4.6175e-05 -0.000123467 0.0  4.12718e-05 -0.000136428 0.0  3.57899e-05 -0.000150122 0.0  2.91564e-05 -0.000163169 0.0  2.17731e-05 -0.000173721 0.0  1.36597e-05 -0.000179674 0.0  5.6734e-06 -0.000179078 0.0  -3.60699e-07 -0.000170803 0.0  -2.39539e-06 -0.000154526 0.0  1.2067e-06 -0.000131165 0.0  1.13472e-05 -0.000103148 0.0  2.79735e-05 -7.36e-05 0.0  8.69107e-05 -2.34053e-05 0.0  8.32893e-05 -3.05102e-05 0.0  7.93547e-05 -3.71256e-05 0.0  7.49996e-05 -4.33492e-05 0.0  7.03235e-05 -4.94629e-05 0.0  6.55546e-05 -5.57265e-05 0.0  6.0945e-05 -6.23404e-05 0.0  5.67193e-05 -6.94022e-05 0.0  8.75447e-05 0.000103634 0.0  9.31657e-05 9.42012e-05 0.0  9.8059e-05 8.48139e-05 0.0  0.000101654 7.49433e-05 0.0  0.000103843 6.45385e-05 0.0  0.000104529 5.35858e-05 0.0  0.000103948 4.22834e-05 0.0  0.000102345 3.09551e-05 0.0  1.84021e-05 8.73946e-05 0.0  1.52674e-06 0.000120978 0.0  -8.44816e-06 0.000153646 0.0  -1.11727e-05 0.000181927 0.0  -7.49742e-06 0.000203243 0.0  1.02387e-06 0.000216362 0.0  1.2408e-05 0.000221233 0.0  2.44451e-05 0.000218945 0.0  3.61389e-05 0.000210856 0.0  4.75537e-05 0.00019885 0.0  5.77039e-05 0.000184945 0.0  6.69888e-05 0.000170783 0.0  7.5913e-05 0.00015703 0.0  8.45626e-05 0.000143554 0.0  9.28877e-05 0.000130083 0.0  5.66675e-05 -4.74198e-05 0.0  8.62457e-05 -2.08595e-05 0.0  0.000122945 2.2452e-07 0.0  0.000158889 1.3998e-05 0.0  0.000192195 1.95967e-05 0.0  0.000218604 1.76925e-05 0.0  0.000235465 1.01977e-05 0.0  0.000240849 2.16725e-07 0.0  0.000234121 -9.59279e-06 0.0  0.000215898 -1.65555e-05 0.0  0.000188074 -1.75017e-05 0.0  0.000153343 -1.04775e-05 0.0  0.000115954 5.24948e-06 0.0  7.79507e-05 2.88785e-05 0.0  4.71987e-05 5.86297e-05 0.0  0 1.3464e-06 0.0  0 1.3464e-06 0.0  
            </DataArray>
         </PointData> 
      </Piece>
   </UnstructuredGrid> 
</VTKFile>
