<?xml version="1.0"?>
<VTKFile type="UnstructuredGrid" version="0.1" byte_order="LittleEndian">
   <UnstructuredGrid>
      <Piece NumberOfPoints="63" NumberOfCells="0" > 
         <Points> 
            <DataArray type="Float64" Name="Position" NumberOfComponents="3" format="ascii"> 
               0.000473559  -0.000642344  0  
               0.000408535  -0.000685829  0  
               0.000339552  -0.000722713  0  
               0.000267278  -0.000752639  0  
               0.000192413  -0.000775316  0  
               0.000115682  -0.000790525  0  
               3.78268e-05  -0.00079812  0  
               -4.03976e-05  -0.000798026  0  
               -0.000118234  -0.000790244  0  
               -0.000194929  -0.00077485  0  
               -0.000269739  -0.000751992  0  
               -0.000341941  -0.000721893  0  
               -0.000410835  -0.000684843  0  
               -0.000475754  -0.000641202  0  
               -0.000536069  -0.000591391  0  
               0.000774734  -0.000193183  0  
               0.000755388  -0.000258717  0  
               0.000730494  -0.000322351  0  
               0.000700236  -0.000383617  0  
               0.000664838  -0.000442064  0  
               0.000624558  -0.00049726  0  
               0.000579695  -0.000548799  0  
               0.000530578  -0.000596303  0  
               0.000530559  0.000596286  0  
               0.000579641  0.000548755  0  
               0.000624478  0.000497201  0  
               0.000664741  0.000442002  0  
               0.000700137  0.000383561  0  
               0.000730405  0.000322307  0  
               0.000755323  0.000258689  0  
               0.00077471  0.000193173  0  
               -0.000536069  0.000591391  0  
               -0.000475754  0.000641202  0  
               -0.000410835  0.000684843  0  
               -0.000341941  0.000721893  0  
               -0.000269739  0.000751992  0  
               -0.000194929  0.00077485  0  
               -0.000118234  0.000790244  0  
               -4.03976e-05  0.000798026  0  
               3.78268e-05  0.00079812  0  
               0.000115682  0.000790525  0  
               0.000192413  0.000775316  0  
               0.000267278  0.000752639  0  
               0.000339552  0.000722713  0  
               0.000408535  0.000685829  0  
               0.000473559  0.000642344  0  
               -0.000593089  -0.000533975  0  
               -0.000645857  -0.000469149  0  
               -0.000691532  -0.000399145  0  
               -0.000729611  -0.000324735  0  
               -0.000759672  -0.00024674  0  
               -0.000781385  -0.000166022  0  
               -0.000794509  -8.34719e-05  0  
               -0.0007989  0  0  
               -0.000794509  8.34719e-05  0  
               -0.000781385  0.000166022  0  
               -0.000759672  0.00024674  0  
               -0.000729611  0.000324735  0  
               -0.000691532  0.000399145  0  
               -0.000645857  0.000469149  0  
               -0.000593089  0.000533975  0  
               0.0007915  -8e-05  0  
               0.0007915  8e-05  0  
            </DataArray>
         </Points> 

         <Cells>
            <DataArray type="Int32" Name="connectivity" NumberOfComponents="1" format="ascii">
               
            </DataArray> 
            <DataArray type="Int32" Name="offsets" NumberOfComponents="1" format="ascii">
               
            </DataArray>
            <DataArray type="UInt8"  Name="types" NumberOfComponents="1" format="ascii">
               
            </DataArray>
         </Cells>
         <PointData Scalars="Rank " Vectors="Displacement-Cylinder Force ">
            <DataArray type="UInt32" Name="Rank" NumberOfComponents="1" format="ascii">
               0 0 0 0 0 0 0 0 0 0 0 0 0 0 0 0 0 0 0 0 0 0 0 0 0 0 0 0 0 0 0 0 0 0 0 0 0 0 0 0 0 0 0 0 0 0 0 0 0 0 0 0 0 0 0 0 0 0 0 0 0 0 0 
            </DataArray>
            <DataArray type="Float64" Name="Displacement-Cylinder" NumberOfComponents="3" format="ascii">
               0 1.62282e-06 0.0  0 1.62282e-06 0.0  0 1.62282e-06 0.0  0 1.62282e-06 0.0  0 1.62282e-06 0.0  0 1.62282e-06 0.0  0 1.62282e-06 0.0  0 1.62282e-06 0.0  0 1.62282e-06 0.0  0 1.62282e-06 0.0  0 1.62282e-06 0.0  0 1.62282e-06 0.0  0 1.62282e-06 0.0  0 1.62282e-06 0.0  0 1.62282e-06 0.0  0 1.62282e-06 0.0  0 1.62282e-06 0.0  0 1.62282e-06 0.0  0 1.62282e-06 0.0  0 1.62282e-06 0.0  0 1.62282e-06 0.0  0 1.62282e-06 0.0  0 1.62282e-06 0.0  0 1.62282e-06 0.0  0 1.62282e-06 0.0  0 1.62282e-06 0.0  0 1.62282e-06 0.0  0 1.62282e-06 0.0  0 1.62282e-06 0.0  0 1.62282e-06 0.0  0 1.62282e-06 0.0  0 1.62282e-06 0.0  0 1.62282e-06 0.0  0 1.62282e-06 0.0  0 1.62282e-06 0.0  0 1.62282e-06 0.0  0 1.62282e-06 0.0  0 1.62282e-06 0.0  0 1.62282e-06 0.0  0 1.62282e-06 0.0  0 1.62282e-06 0.0  0 1.62282e-06 0.0  0 1.62282e-06 0.0  0 1.62282e-06 0.0  0 1.62282e-06 0.0  0 1.62282e-06 0.0  0 1.62282e-06 0.0  0 1.62282e-06 0.0  0 1.62282e-06 0.0  0 1.62282e-06 0.0  0 1.62282e-06 0.0  0 1.62282e-06 0.0  0 1.62282e-06 0.0  0 1.62282e-06 0.0  0 1.62282e-06 0.0  0 1.62282e-06 0.0  0 1.62282e-06 0.0  0 1.62282e-06 0.0  0 1.62282e-06 0.0  0 1.62282e-06 0.0  0 1.62282e-06 0.0  0 1.62282e-06 0.0  0 1.62282e-06 0.0  
            </DataArray>
            <DataArray type="Float64" Name="Force" NumberOfComponents="3" format="ascii">
               0.000225711 -3.5774e-05 0.0  0.000227429 1.8172e-05 0.0  5.57786e-05 -0.000121345 0.0  5.04596e-05 -0.000134635 0.0  4.47776e-05 -0.000148417 0.0  3.84099e-05 -0.000162841 0.0  3.07472e-05 -0.000176413 0.0  2.22777e-05 -0.000187182 0.0  1.30321e-05 -0.000193 0.0  3.92873e-06 -0.000191951 0.0  -3.08819e-06 -0.000182904 0.0  -5.92222e-06 -0.000165591 0.0  -2.90546e-06 -0.000141016 0.0  6.88627e-06 -0.000111677 0.0  2.3353e-05 -8.08376e-05 0.0  9.29353e-05 -2.82925e-05 0.0  9.00266e-05 -3.54779e-05 0.0  8.64524e-05 -4.23027e-05 0.0  8.21783e-05 -4.87762e-05 0.0  7.73676e-05 -5.51672e-05 0.0  7.22907e-05 -6.17401e-05 0.0  6.72304e-05 -6.86911e-05 0.0  6.2499e-05 -7.61603e-05 0.0  8.13426e-05 9.64258e-05 0.0  8.63837e-05 8.7387e-05 0.0  9.06351e-05 7.81641e-05 0.0  9.37444e-05 6.82796e-05 0.0  9.57904e-05 5.78685e-05 0.0  9.6811e-05 4.69964e-05 0.0  9.71646e-05 3.59538e-05 0.0  9.71729e-05 2.49572e-05 0.0  2.36723e-05 7.94196e-05 0.0  6.56649e-06 0.000111628 0.0  -3.84627e-06 0.000142903 0.0  -7.24384e-06 0.000169884 0.0  -4.46654e-06 0.000190088 0.0  2.96637e-06 0.000202357 0.0  1.31266e-05 0.000206716 0.0  2.39134e-05 0.000204284 0.0  3.43986e-05 0.000196433 0.0  4.46886e-05 0.000184994 0.0  5.38699e-05 0.000171903 0.0  6.23458e-05 0.000158712 0.0  7.06006e-05 0.000145963 0.0  7.86657e-05 0.000133546 0.0  8.64017e-05 0.000121126 0.0  5.18849e-05 -5.38106e-05 0.0  8.16828e-05 -2.60038e-05 0.0  0.000118902 -3.78967e-06 0.0  0.00015554 1.09502e-05 0.0  0.000189694 1.73258e-05 0.0  0.000217055 1.59749e-05 0.0  0.000234933 8.76853e-06 0.0  0.00024136 -1.15789e-06 0.0  0.000235669 -1.11295e-05 0.0  0.000218445 -1.84864e-05 0.0  0.000191541 -2.00903e-05 0.0  0.00015762 -1.39441e-05 0.0  0.00012087 7.1872e-07 0.0  8.33283e-05 2.3116e-05 0.0  5.27543e-05 5.15208e-05 0.0  0 1.62282e-06 0.0  0 1.62282e-06 0.0  
            </DataArray>
         </PointData> 
      </Piece>
   </UnstructuredGrid> 
</VTKFile>
