<?xml version="1.0"?>
<VTKFile type="UnstructuredGrid" version="0.1" byte_order="LittleEndian">
   <UnstructuredGrid>
      <Piece NumberOfPoints="63" NumberOfCells="0" > 
         <Points> 
            <DataArray type="Float64" Name="Position" NumberOfComponents="3" format="ascii"> 
               0.000473559  -0.000642344  0  
               0.000408535  -0.000685829  0  
               0.000339552  -0.000722713  0  
               0.000267278  -0.000752639  0  
               0.000192413  -0.000775316  0  
               0.000115682  -0.000790525  0  
               3.78268e-05  -0.00079812  0  
               -4.03976e-05  -0.000798026  0  
               -0.000118234  -0.000790244  0  
               -0.000194929  -0.00077485  0  
               -0.000269739  -0.000751992  0  
               -0.000341941  -0.000721893  0  
               -0.000410835  -0.000684843  0  
               -0.000475754  -0.000641202  0  
               -0.000536069  -0.000591391  0  
               0.000774734  -0.000193183  0  
               0.000755388  -0.000258717  0  
               0.000730494  -0.000322351  0  
               0.000700236  -0.000383617  0  
               0.000664838  -0.000442064  0  
               0.000624558  -0.00049726  0  
               0.000579695  -0.000548799  0  
               0.000530578  -0.000596303  0  
               0.000530559  0.000596286  0  
               0.000579641  0.000548755  0  
               0.000624478  0.000497201  0  
               0.000664741  0.000442002  0  
               0.000700137  0.000383561  0  
               0.000730405  0.000322307  0  
               0.000755323  0.000258689  0  
               0.00077471  0.000193173  0  
               -0.000536069  0.000591391  0  
               -0.000475754  0.000641202  0  
               -0.000410835  0.000684843  0  
               -0.000341941  0.000721893  0  
               -0.000269739  0.000751992  0  
               -0.000194929  0.00077485  0  
               -0.000118234  0.000790244  0  
               -4.03976e-05  0.000798026  0  
               3.78268e-05  0.00079812  0  
               0.000115682  0.000790525  0  
               0.000192413  0.000775316  0  
               0.000267278  0.000752639  0  
               0.000339552  0.000722713  0  
               0.000408535  0.000685829  0  
               0.000473559  0.000642344  0  
               -0.000593089  -0.000533975  0  
               -0.000645857  -0.000469149  0  
               -0.000691532  -0.000399145  0  
               -0.000729611  -0.000324735  0  
               -0.000759672  -0.00024674  0  
               -0.000781385  -0.000166022  0  
               -0.000794509  -8.34719e-05  0  
               -0.0007989  0  0  
               -0.000794509  8.34719e-05  0  
               -0.000781385  0.000166022  0  
               -0.000759672  0.00024674  0  
               -0.000729611  0.000324735  0  
               -0.000691532  0.000399145  0  
               -0.000645857  0.000469149  0  
               -0.000593089  0.000533975  0  
               0.0007915  -8e-05  0  
               0.0007915  8e-05  0  
            </DataArray>
         </Points> 

         <Cells>
            <DataArray type="Int32" Name="connectivity" NumberOfComponents="1" format="ascii">
               
            </DataArray> 
            <DataArray type="Int32" Name="offsets" NumberOfComponents="1" format="ascii">
               
            </DataArray>
            <DataArray type="UInt8"  Name="types" NumberOfComponents="1" format="ascii">
               
            </DataArray>
         </Cells>
         <PointData Scalars="Rank " Vectors="Displacement-Cylinder Force ">
            <DataArray type="UInt32" Name="Rank" NumberOfComponents="1" format="ascii">
               0 0 0 0 0 0 0 0 0 0 0 0 0 0 0 0 0 0 0 0 0 0 0 0 0 0 0 0 0 0 0 0 0 0 0 0 0 0 0 0 0 0 0 0 0 0 0 0 0 0 0 0 0 0 0 0 0 0 0 0 0 0 0 
            </DataArray>
            <DataArray type="Float64" Name="Displacement-Cylinder" NumberOfComponents="3" format="ascii">
               0 2.37805e-07 0.0  0 2.37805e-07 0.0  0 2.37805e-07 0.0  0 2.37805e-07 0.0  0 2.37805e-07 0.0  0 2.37805e-07 0.0  0 2.37805e-07 0.0  0 2.37805e-07 0.0  0 2.37805e-07 0.0  0 2.37805e-07 0.0  0 2.37805e-07 0.0  0 2.37805e-07 0.0  0 2.37805e-07 0.0  0 2.37805e-07 0.0  0 2.37805e-07 0.0  0 2.37805e-07 0.0  0 2.37805e-07 0.0  0 2.37805e-07 0.0  0 2.37805e-07 0.0  0 2.37805e-07 0.0  0 2.37805e-07 0.0  0 2.37805e-07 0.0  0 2.37805e-07 0.0  0 2.37805e-07 0.0  0 2.37805e-07 0.0  0 2.37805e-07 0.0  0 2.37805e-07 0.0  0 2.37805e-07 0.0  0 2.37805e-07 0.0  0 2.37805e-07 0.0  0 2.37805e-07 0.0  0 2.37805e-07 0.0  0 2.37805e-07 0.0  0 2.37805e-07 0.0  0 2.37805e-07 0.0  0 2.37805e-07 0.0  0 2.37805e-07 0.0  0 2.37805e-07 0.0  0 2.37805e-07 0.0  0 2.37805e-07 0.0  0 2.37805e-07 0.0  0 2.37805e-07 0.0  0 2.37805e-07 0.0  0 2.37805e-07 0.0  0 2.37805e-07 0.0  0 2.37805e-07 0.0  0 2.37805e-07 0.0  0 2.37805e-07 0.0  0 2.37805e-07 0.0  0 2.37805e-07 0.0  0 2.37805e-07 0.0  0 2.37805e-07 0.0  0 2.37805e-07 0.0  0 2.37805e-07 0.0  0 2.37805e-07 0.0  0 2.37805e-07 0.0  0 2.37805e-07 0.0  0 2.37805e-07 0.0  0 2.37805e-07 0.0  0 2.37805e-07 0.0  0 2.37805e-07 0.0  0 2.37805e-07 0.0  0 2.37805e-07 0.0  
            </DataArray>
            <DataArray type="Float64" Name="Force" NumberOfComponents="3" format="ascii">
               0.000148898 -1.79729e-05 0.0  0.000149612 1.92377e-05 0.0  4.26795e-05 -9.30926e-05 0.0  3.89228e-05 -0.000103592 0.0  3.50702e-05 -0.000114661 0.0  3.08804e-05 -0.000126509 0.0  2.58506e-05 -0.000137949 0.0  2.03069e-05 -0.000147436 0.0  1.42184e-05 -0.000153071 0.0  8.29787e-06 -0.000153023 0.0  4.11523e-06 -0.000146182 0.0  3.54495e-06 -0.000132084 0.0  8.10542e-06 -0.000111462 0.0  1.8652e-05 -8.65327e-05 0.0  3.5303e-05 -5.99992e-05 0.0  6.24595e-05 -1.79961e-05 0.0  6.15168e-05 -2.41591e-05 0.0  6.01966e-05 -3.0191e-05 0.0  5.84086e-05 -3.60399e-05 0.0  5.61624e-05 -4.17457e-05 0.0  5.35177e-05 -4.73679e-05 0.0  5.0552e-05 -5.29886e-05 0.0  4.74242e-05 -5.87081e-05 0.0  4.81964e-05 5.95608e-05 0.0  5.14026e-05 5.38175e-05 0.0  5.44337e-05 4.81864e-05 0.0  5.71109e-05 4.25491e-05 0.0  5.93418e-05 3.68142e-05 0.0  6.10692e-05 3.0925e-05 0.0  6.22833e-05 2.48436e-05 0.0  6.30776e-05 1.86462e-05 0.0  3.40556e-05 6.17629e-05 0.0  1.74793e-05 8.84796e-05 0.0  7.05333e-06 0.000113533 0.0  2.64304e-06 0.000134205 0.0  3.38209e-06 0.000148264 0.0  7.73235e-06 0.000154991 0.0  1.37986e-05 0.000154879 0.0  2.00266e-05 0.000149058 0.0  2.57021e-05 0.00013941 0.0  3.08471e-05 0.000127861 0.0  3.51806e-05 0.000115942 0.0  3.91573e-05 0.000104817 0.0  4.30725e-05 9.42252e-05 0.0  4.71261e-05 8.44924e-05 0.0  5.13248e-05 7.54726e-05 0.0  6.39283e-05 -3.58222e-05 0.0  9.2772e-05 -1.20104e-05 0.0  0.000128312 6.68176e-06 0.0  0.000163073 1.84904e-05 0.0  0.000195296 2.25586e-05 0.0  0.000220932 1.94925e-05 0.0  0.000237468 1.10719e-05 0.0  0.000243076 2.0195e-07 0.0  0.000237162 -1.06394e-05 0.0  0.000220337 -1.89698e-05 0.0  0.000194442 -2.18787e-05 0.0  0.000162002 -1.76049e-05 0.0  0.000127085 -5.5574e-06 0.0  9.14437e-05 1.33928e-05 0.0  6.25919e-05 3.74582e-05 0.0  0 2.37804e-07 0.0  0 2.37804e-07 0.0  
            </DataArray>
         </PointData> 
      </Piece>
   </UnstructuredGrid> 
</VTKFile>
