<?xml version="1.0"?>
<VTKFile type="UnstructuredGrid" version="0.1" byte_order="LittleEndian">
   <UnstructuredGrid>
      <Piece NumberOfPoints="63" NumberOfCells="0" > 
         <Points> 
            <DataArray type="Float64" Name="Position" NumberOfComponents="3" format="ascii"> 
               0.000473559  -0.000642344  0  
               0.000408535  -0.000685829  0  
               0.000339552  -0.000722713  0  
               0.000267278  -0.000752639  0  
               0.000192413  -0.000775316  0  
               0.000115682  -0.000790525  0  
               3.78268e-05  -0.00079812  0  
               -4.03976e-05  -0.000798026  0  
               -0.000118234  -0.000790244  0  
               -0.000194929  -0.00077485  0  
               -0.000269739  -0.000751992  0  
               -0.000341941  -0.000721893  0  
               -0.000410835  -0.000684843  0  
               -0.000475754  -0.000641202  0  
               -0.000536069  -0.000591391  0  
               0.000774734  -0.000193183  0  
               0.000755388  -0.000258717  0  
               0.000730494  -0.000322351  0  
               0.000700236  -0.000383617  0  
               0.000664838  -0.000442064  0  
               0.000624558  -0.00049726  0  
               0.000579695  -0.000548799  0  
               0.000530578  -0.000596303  0  
               0.000530559  0.000596286  0  
               0.000579641  0.000548755  0  
               0.000624478  0.000497201  0  
               0.000664741  0.000442002  0  
               0.000700137  0.000383561  0  
               0.000730405  0.000322307  0  
               0.000755323  0.000258689  0  
               0.00077471  0.000193173  0  
               -0.000536069  0.000591391  0  
               -0.000475754  0.000641202  0  
               -0.000410835  0.000684843  0  
               -0.000341941  0.000721893  0  
               -0.000269739  0.000751992  0  
               -0.000194929  0.00077485  0  
               -0.000118234  0.000790244  0  
               -4.03976e-05  0.000798026  0  
               3.78268e-05  0.00079812  0  
               0.000115682  0.000790525  0  
               0.000192413  0.000775316  0  
               0.000267278  0.000752639  0  
               0.000339552  0.000722713  0  
               0.000408535  0.000685829  0  
               0.000473559  0.000642344  0  
               -0.000593089  -0.000533975  0  
               -0.000645857  -0.000469149  0  
               -0.000691532  -0.000399145  0  
               -0.000729611  -0.000324735  0  
               -0.000759672  -0.00024674  0  
               -0.000781385  -0.000166022  0  
               -0.000794509  -8.34719e-05  0  
               -0.0007989  0  0  
               -0.000794509  8.34719e-05  0  
               -0.000781385  0.000166022  0  
               -0.000759672  0.00024674  0  
               -0.000729611  0.000324735  0  
               -0.000691532  0.000399145  0  
               -0.000645857  0.000469149  0  
               -0.000593089  0.000533975  0  
               0.0007915  -8e-05  0  
               0.0007915  8e-05  0  
            </DataArray>
         </Points> 

         <Cells>
            <DataArray type="Int32" Name="connectivity" NumberOfComponents="1" format="ascii">
               
            </DataArray> 
            <DataArray type="Int32" Name="offsets" NumberOfComponents="1" format="ascii">
               
            </DataArray>
            <DataArray type="UInt8"  Name="types" NumberOfComponents="1" format="ascii">
               
            </DataArray>
         </Cells>
         <PointData Scalars="Rank " Vectors="Displacement-Cylinder Force ">
            <DataArray type="UInt32" Name="Rank" NumberOfComponents="1" format="ascii">
               0 0 0 0 0 0 0 0 0 0 0 0 0 0 0 0 0 0 0 0 0 0 0 0 0 0 0 0 0 0 0 0 0 0 0 0 0 0 0 0 0 0 0 0 0 0 0 0 0 0 0 0 0 0 0 0 0 0 0 0 0 0 0 
            </DataArray>
            <DataArray type="Float64" Name="Displacement-Cylinder" NumberOfComponents="3" format="ascii">
               0 1.25296e-06 0.0  0 1.25296e-06 0.0  0 1.25296e-06 0.0  0 1.25296e-06 0.0  0 1.25296e-06 0.0  0 1.25296e-06 0.0  0 1.25296e-06 0.0  0 1.25296e-06 0.0  0 1.25296e-06 0.0  0 1.25296e-06 0.0  0 1.25296e-06 0.0  0 1.25296e-06 0.0  0 1.25296e-06 0.0  0 1.25296e-06 0.0  0 1.25296e-06 0.0  0 1.25296e-06 0.0  0 1.25296e-06 0.0  0 1.25296e-06 0.0  0 1.25296e-06 0.0  0 1.25296e-06 0.0  0 1.25296e-06 0.0  0 1.25296e-06 0.0  0 1.25296e-06 0.0  0 1.25296e-06 0.0  0 1.25296e-06 0.0  0 1.25296e-06 0.0  0 1.25296e-06 0.0  0 1.25296e-06 0.0  0 1.25296e-06 0.0  0 1.25296e-06 0.0  0 1.25296e-06 0.0  0 1.25296e-06 0.0  0 1.25296e-06 0.0  0 1.25296e-06 0.0  0 1.25296e-06 0.0  0 1.25296e-06 0.0  0 1.25296e-06 0.0  0 1.25296e-06 0.0  0 1.25296e-06 0.0  0 1.25296e-06 0.0  0 1.25296e-06 0.0  0 1.25296e-06 0.0  0 1.25296e-06 0.0  0 1.25296e-06 0.0  0 1.25296e-06 0.0  0 1.25296e-06 0.0  0 1.25296e-06 0.0  0 1.25296e-06 0.0  0 1.25296e-06 0.0  0 1.25296e-06 0.0  0 1.25296e-06 0.0  0 1.25296e-06 0.0  0 1.25296e-06 0.0  0 1.25296e-06 0.0  0 1.25296e-06 0.0  0 1.25296e-06 0.0  0 1.25296e-06 0.0  0 1.25296e-06 0.0  0 1.25296e-06 0.0  0 1.25296e-06 0.0  0 1.25296e-06 0.0  0 1.25296e-06 0.0  0 1.25296e-06 0.0  
            </DataArray>
            <DataArray type="Float64" Name="Force" NumberOfComponents="3" format="ascii">
               0.00022897 -3.76919e-05 0.0  0.000228311 1.63436e-05 0.0  5.71983e-05 -0.000124261 0.0  5.16561e-05 -0.000137746 0.0  4.5731e-05 -0.000151714 0.0  3.90793e-05 -0.000166303 0.0  3.11105e-05 -0.000179962 0.0  2.23265e-05 -0.000190748 0.0  1.27625e-05 -0.000196504 0.0  3.34892e-06 -0.000195325 0.0  -3.94501e-06 -0.00018608 0.0  -7.01476e-06 -0.000168515 0.0  -4.18765e-06 -0.000143653 0.0  5.46533e-06 -0.000114002 0.0  2.18353e-05 -8.28529e-05 0.0  9.47306e-05 -2.92735e-05 0.0  9.19556e-05 -3.65633e-05 0.0  8.84502e-05 -4.35188e-05 0.0  8.41784e-05 -5.01265e-05 0.0  7.93351e-05 -5.66605e-05 0.0  7.41981e-05 -6.33815e-05 0.0  6.90446e-05 -7.04831e-05 0.0  6.41822e-05 -7.809e-05 0.0  8.02188e-05 9.51423e-05 0.0  8.51811e-05 8.61564e-05 0.0  8.93748e-05 7.69734e-05 0.0  9.24499e-05 6.70906e-05 0.0  9.46116e-05 5.67411e-05 0.0  9.57959e-05 4.59147e-05 0.0  9.63716e-05 3.49387e-05 0.0  9.68153e-05 2.40317e-05 0.0  2.41799e-05 7.84624e-05 0.0  7.10304e-06 0.00011042 0.0  -3.3148e-06 0.000141421 0.0  -6.76832e-06 0.000168139 0.0  -4.0949e-06 0.000188102 0.0  3.19045e-06 0.000200171 0.0  1.31661e-05 0.000204389 0.0  2.3754e-05 0.000201879 0.0  3.40397e-05 0.000194024 0.0  4.41384e-05 0.000182647 0.0  5.31525e-05 0.000169669 0.0  6.14867e-05 0.000156634 0.0  6.96212e-05 0.000144041 0.0  7.75856e-05 0.000131789 0.0  8.52129e-05 0.000119542 0.0  5.0226e-05 -5.5641e-05 0.0  8.00075e-05 -2.75132e-05 0.0  0.000117272 -4.99615e-06 0.0  0.000153998 1.00198e-05 0.0  0.00018828 1.66388e-05 0.0  0.000215799 1.54916e-05 0.0  0.000233862 8.44097e-06 0.0  0.00024049 -1.37482e-06 0.0  0.000235013 -1.12798e-05 0.0  0.000218008 -1.86187e-05 0.0  0.000191321 -2.02602e-05 0.0  0.000157609 -1.42021e-05 0.0  0.000121046 3.26157e-07 0.0  8.36679e-05 2.25432e-05 0.0  5.32146e-05 5.0733e-05 0.0  0 1.25296e-06 0.0  0 1.25296e-06 0.0  
            </DataArray>
         </PointData> 
      </Piece>
   </UnstructuredGrid> 
</VTKFile>
