<?xml version="1.0"?>
<VTKFile type="UnstructuredGrid" version="0.1" byte_order="LittleEndian">
   <UnstructuredGrid>
      <Piece NumberOfPoints="63" NumberOfCells="0" > 
         <Points> 
            <DataArray type="Float64" Name="Position" NumberOfComponents="3" format="ascii"> 
               0.000473559  -0.000642344  0  
               0.000408535  -0.000685829  0  
               0.000339552  -0.000722713  0  
               0.000267278  -0.000752639  0  
               0.000192413  -0.000775316  0  
               0.000115682  -0.000790525  0  
               3.78268e-05  -0.00079812  0  
               -4.03976e-05  -0.000798026  0  
               -0.000118234  -0.000790244  0  
               -0.000194929  -0.00077485  0  
               -0.000269739  -0.000751992  0  
               -0.000341941  -0.000721893  0  
               -0.000410835  -0.000684843  0  
               -0.000475754  -0.000641202  0  
               -0.000536069  -0.000591391  0  
               0.000774734  -0.000193183  0  
               0.000755388  -0.000258717  0  
               0.000730494  -0.000322351  0  
               0.000700236  -0.000383617  0  
               0.000664838  -0.000442064  0  
               0.000624558  -0.00049726  0  
               0.000579695  -0.000548799  0  
               0.000530578  -0.000596303  0  
               0.000530559  0.000596286  0  
               0.000579641  0.000548755  0  
               0.000624478  0.000497201  0  
               0.000664741  0.000442002  0  
               0.000700137  0.000383561  0  
               0.000730405  0.000322307  0  
               0.000755323  0.000258689  0  
               0.00077471  0.000193173  0  
               -0.000536069  0.000591391  0  
               -0.000475754  0.000641202  0  
               -0.000410835  0.000684843  0  
               -0.000341941  0.000721893  0  
               -0.000269739  0.000751992  0  
               -0.000194929  0.00077485  0  
               -0.000118234  0.000790244  0  
               -4.03976e-05  0.000798026  0  
               3.78268e-05  0.00079812  0  
               0.000115682  0.000790525  0  
               0.000192413  0.000775316  0  
               0.000267278  0.000752639  0  
               0.000339552  0.000722713  0  
               0.000408535  0.000685829  0  
               0.000473559  0.000642344  0  
               -0.000593089  -0.000533975  0  
               -0.000645857  -0.000469149  0  
               -0.000691532  -0.000399145  0  
               -0.000729611  -0.000324735  0  
               -0.000759672  -0.00024674  0  
               -0.000781385  -0.000166022  0  
               -0.000794509  -8.34719e-05  0  
               -0.0007989  0  0  
               -0.000794509  8.34719e-05  0  
               -0.000781385  0.000166022  0  
               -0.000759672  0.00024674  0  
               -0.000729611  0.000324735  0  
               -0.000691532  0.000399145  0  
               -0.000645857  0.000469149  0  
               -0.000593089  0.000533975  0  
               0.0007915  -8e-05  0  
               0.0007915  8e-05  0  
            </DataArray>
         </Points> 

         <Cells>
            <DataArray type="Int32" Name="connectivity" NumberOfComponents="1" format="ascii">
               
            </DataArray> 
            <DataArray type="Int32" Name="offsets" NumberOfComponents="1" format="ascii">
               
            </DataArray>
            <DataArray type="UInt8"  Name="types" NumberOfComponents="1" format="ascii">
               
            </DataArray>
         </Cells>
         <PointData Scalars="Rank " Vectors="Displacement-Cylinder Force ">
            <DataArray type="UInt32" Name="Rank" NumberOfComponents="1" format="ascii">
               0 0 0 0 0 0 0 0 0 0 0 0 0 0 0 0 0 0 0 0 0 0 0 0 0 0 0 0 0 0 0 0 0 0 0 0 0 0 0 0 0 0 0 0 0 0 0 0 0 0 0 0 0 0 0 0 0 0 0 0 0 0 0 
            </DataArray>
            <DataArray type="Float64" Name="Displacement-Cylinder" NumberOfComponents="3" format="ascii">
               0 1.4542e-06 0.0  0 1.4542e-06 0.0  0 1.4542e-06 0.0  0 1.4542e-06 0.0  0 1.4542e-06 0.0  0 1.4542e-06 0.0  0 1.4542e-06 0.0  0 1.4542e-06 0.0  0 1.4542e-06 0.0  0 1.4542e-06 0.0  0 1.4542e-06 0.0  0 1.4542e-06 0.0  0 1.4542e-06 0.0  0 1.4542e-06 0.0  0 1.4542e-06 0.0  0 1.4542e-06 0.0  0 1.4542e-06 0.0  0 1.4542e-06 0.0  0 1.4542e-06 0.0  0 1.4542e-06 0.0  0 1.4542e-06 0.0  0 1.4542e-06 0.0  0 1.4542e-06 0.0  0 1.4542e-06 0.0  0 1.4542e-06 0.0  0 1.4542e-06 0.0  0 1.4542e-06 0.0  0 1.4542e-06 0.0  0 1.4542e-06 0.0  0 1.4542e-06 0.0  0 1.4542e-06 0.0  0 1.4542e-06 0.0  0 1.4542e-06 0.0  0 1.4542e-06 0.0  0 1.4542e-06 0.0  0 1.4542e-06 0.0  0 1.4542e-06 0.0  0 1.4542e-06 0.0  0 1.4542e-06 0.0  0 1.4542e-06 0.0  0 1.4542e-06 0.0  0 1.4542e-06 0.0  0 1.4542e-06 0.0  0 1.4542e-06 0.0  0 1.4542e-06 0.0  0 1.4542e-06 0.0  0 1.4542e-06 0.0  0 1.4542e-06 0.0  0 1.4542e-06 0.0  0 1.4542e-06 0.0  0 1.4542e-06 0.0  0 1.4542e-06 0.0  0 1.4542e-06 0.0  0 1.4542e-06 0.0  0 1.4542e-06 0.0  0 1.4542e-06 0.0  0 1.4542e-06 0.0  0 1.4542e-06 0.0  0 1.4542e-06 0.0  0 1.4542e-06 0.0  0 1.4542e-06 0.0  0 1.4542e-06 0.0  0 1.4542e-06 0.0  
            </DataArray>
            <DataArray type="Float64" Name="Force" NumberOfComponents="3" format="ascii">
               0.000230215 -3.00033e-05 0.0  0.000216008 2.48992e-05 0.0  7.57332e-05 -0.000156565 0.0  6.68577e-05 -0.000170276 0.0  5.7613e-05 -0.000184396 0.0  4.74936e-05 -0.000198245 0.0  3.61063e-05 -0.000210189 0.0  2.44342e-05 -0.000218225 0.0  1.24191e-05 -0.000220489 0.0  1.0541e-06 -0.000215642 0.0  -7.46262e-06 -0.000202609 0.0  -1.11572e-05 -0.000181435 0.0  -8.48196e-06 -0.000153331 0.0  1.41425e-06 -0.000120855 0.0  1.82045e-05 -8.74384e-05 0.0  0.000101796 -3.05987e-05 0.0  0.000103389 -4.19437e-05 0.0  0.000103985 -5.32691e-05 0.0  0.000103347 -6.42585e-05 0.0  0.000101201 -7.46926e-05 0.0  9.76482e-05 -8.45814e-05 0.0  9.27849e-05 -9.39728e-05 0.0  8.71854e-05 -0.0001034 0.0  5.67327e-05 6.93927e-05 0.0  6.0931e-05 6.23299e-05 0.0  6.55173e-05 5.57283e-05 0.0  7.02577e-05 4.94827e-05 0.0  7.49003e-05 4.33922e-05 0.0  7.92174e-05 3.71974e-05 0.0  8.31039e-05 3.0618e-05 0.0  8.66763e-05 2.35665e-05 0.0  2.79952e-05 7.36793e-05 0.0  1.13223e-05 0.000103355 0.0  1.1399e-06 0.000131507 0.0  -2.4838e-06 0.000154974 0.0  -4.51134e-07 0.000171313 0.0  5.59189e-06 0.000179594 0.0  1.35856e-05 0.000180145 0.0  2.17048e-05 0.000174105 0.0  2.90888e-05 0.000163459 0.0  3.57092e-05 0.000150338 0.0  4.11944e-05 0.000136589 0.0  4.60873e-05 0.00012358 0.0  5.07683e-05 0.000111107 0.0  5.54251e-05 9.94635e-05 0.0  6.02905e-05 8.84875e-05 0.0  4.68994e-05 -5.87924e-05 0.0  7.75504e-05 -2.9132e-05 0.0  0.000115491 -5.54302e-06 0.0  0.000152854 1.01851e-05 0.0  0.000187608 1.72392e-05 0.0  0.00021549 1.63342e-05 0.0  0.000233807 9.40723e-06 0.0  0.000240644 -3.76784e-07 0.0  0.000235374 -1.03441e-05 0.0  0.000218617 -1.7837e-05 0.0  0.000192285 -1.97489e-05 0.0  0.000159028 -1.41526e-05 0.0  0.000123092 -3.61874e-07 0.0  8.63688e-05 2.07689e-05 0.0  5.67348e-05 4.74118e-05 0.0  0 1.45421e-06 0.0  0 1.45421e-06 0.0  
            </DataArray>
         </PointData> 
      </Piece>
   </UnstructuredGrid> 
</VTKFile>
