<?xml version="1.0"?>
<VTKFile type="UnstructuredGrid" version="0.1" byte_order="LittleEndian">
   <UnstructuredGrid>
      <Piece NumberOfPoints="63" NumberOfCells="0" > 
         <Points> 
            <DataArray type="Float64" Name="Position" NumberOfComponents="3" format="ascii"> 
               0.000473559  -0.000642344  0  
               0.000408535  -0.000685829  0  
               0.000339552  -0.000722713  0  
               0.000267278  -0.000752639  0  
               0.000192413  -0.000775316  0  
               0.000115682  -0.000790525  0  
               3.78268e-05  -0.00079812  0  
               -4.03976e-05  -0.000798026  0  
               -0.000118234  -0.000790244  0  
               -0.000194929  -0.00077485  0  
               -0.000269739  -0.000751992  0  
               -0.000341941  -0.000721893  0  
               -0.000410835  -0.000684843  0  
               -0.000475754  -0.000641202  0  
               -0.000536069  -0.000591391  0  
               0.000774734  -0.000193183  0  
               0.000755388  -0.000258717  0  
               0.000730494  -0.000322351  0  
               0.000700236  -0.000383617  0  
               0.000664838  -0.000442064  0  
               0.000624558  -0.00049726  0  
               0.000579695  -0.000548799  0  
               0.000530578  -0.000596303  0  
               0.000530559  0.000596286  0  
               0.000579641  0.000548755  0  
               0.000624478  0.000497201  0  
               0.000664741  0.000442002  0  
               0.000700137  0.000383561  0  
               0.000730405  0.000322307  0  
               0.000755323  0.000258689  0  
               0.00077471  0.000193173  0  
               -0.000536069  0.000591391  0  
               -0.000475754  0.000641202  0  
               -0.000410835  0.000684843  0  
               -0.000341941  0.000721893  0  
               -0.000269739  0.000751992  0  
               -0.000194929  0.00077485  0  
               -0.000118234  0.000790244  0  
               -4.03976e-05  0.000798026  0  
               3.78268e-05  0.00079812  0  
               0.000115682  0.000790525  0  
               0.000192413  0.000775316  0  
               0.000267278  0.000752639  0  
               0.000339552  0.000722713  0  
               0.000408535  0.000685829  0  
               0.000473559  0.000642344  0  
               -0.000593089  -0.000533975  0  
               -0.000645857  -0.000469149  0  
               -0.000691532  -0.000399145  0  
               -0.000729611  -0.000324735  0  
               -0.000759672  -0.00024674  0  
               -0.000781385  -0.000166022  0  
               -0.000794509  -8.34719e-05  0  
               -0.0007989  0  0  
               -0.000794509  8.34719e-05  0  
               -0.000781385  0.000166022  0  
               -0.000759672  0.00024674  0  
               -0.000729611  0.000324735  0  
               -0.000691532  0.000399145  0  
               -0.000645857  0.000469149  0  
               -0.000593089  0.000533975  0  
               0.0007915  -8e-05  0  
               0.0007915  8e-05  0  
            </DataArray>
         </Points> 

         <Cells>
            <DataArray type="Int32" Name="connectivity" NumberOfComponents="1" format="ascii">
               
            </DataArray> 
            <DataArray type="Int32" Name="offsets" NumberOfComponents="1" format="ascii">
               
            </DataArray>
            <DataArray type="UInt8"  Name="types" NumberOfComponents="1" format="ascii">
               
            </DataArray>
         </Cells>
         <PointData Scalars="Rank " Vectors="Displacement-Cylinder Force ">
            <DataArray type="UInt32" Name="Rank" NumberOfComponents="1" format="ascii">
               0 0 0 0 0 0 0 0 0 0 0 0 0 0 0 0 0 0 0 0 0 0 0 0 0 0 0 0 0 0 0 0 0 0 0 0 0 0 0 0 0 0 0 0 0 0 0 0 0 0 0 0 0 0 0 0 0 0 0 0 0 0 0 
            </DataArray>
            <DataArray type="Float64" Name="Displacement-Cylinder" NumberOfComponents="3" format="ascii">
               0 5.4105e-07 0.0  0 5.4105e-07 0.0  0 5.4105e-07 0.0  0 5.4105e-07 0.0  0 5.4105e-07 0.0  0 5.4105e-07 0.0  0 5.4105e-07 0.0  0 5.4105e-07 0.0  0 5.4105e-07 0.0  0 5.4105e-07 0.0  0 5.4105e-07 0.0  0 5.4105e-07 0.0  0 5.4105e-07 0.0  0 5.4105e-07 0.0  0 5.4105e-07 0.0  0 5.4105e-07 0.0  0 5.4105e-07 0.0  0 5.4105e-07 0.0  0 5.4105e-07 0.0  0 5.4105e-07 0.0  0 5.4105e-07 0.0  0 5.4105e-07 0.0  0 5.4105e-07 0.0  0 5.4105e-07 0.0  0 5.4105e-07 0.0  0 5.4105e-07 0.0  0 5.4105e-07 0.0  0 5.4105e-07 0.0  0 5.4105e-07 0.0  0 5.4105e-07 0.0  0 5.4105e-07 0.0  0 5.4105e-07 0.0  0 5.4105e-07 0.0  0 5.4105e-07 0.0  0 5.4105e-07 0.0  0 5.4105e-07 0.0  0 5.4105e-07 0.0  0 5.4105e-07 0.0  0 5.4105e-07 0.0  0 5.4105e-07 0.0  0 5.4105e-07 0.0  0 5.4105e-07 0.0  0 5.4105e-07 0.0  0 5.4105e-07 0.0  0 5.4105e-07 0.0  0 5.4105e-07 0.0  0 5.4105e-07 0.0  0 5.4105e-07 0.0  0 5.4105e-07 0.0  0 5.4105e-07 0.0  0 5.4105e-07 0.0  0 5.4105e-07 0.0  0 5.4105e-07 0.0  0 5.4105e-07 0.0  0 5.4105e-07 0.0  0 5.4105e-07 0.0  0 5.4105e-07 0.0  0 5.4105e-07 0.0  0 5.4105e-07 0.0  0 5.4105e-07 0.0  0 5.4105e-07 0.0  0 5.4105e-07 0.0  0 5.4105e-07 0.0  
            </DataArray>
            <DataArray type="Float64" Name="Force" NumberOfComponents="3" format="ascii">
               0.000178612 -1.78904e-05 0.0  0.000179685 2.51336e-05 0.0  5.11749e-05 -0.000109454 0.0  4.59019e-05 -0.000120274 0.0  4.04338e-05 -0.000131669 0.0  3.45773e-05 -0.000143718 0.0  2.78285e-05 -0.000154952 0.0  2.07149e-05 -0.000163833 0.0  1.31411e-05 -0.000168525 0.0  5.85049e-06 -0.000167344 0.0  5.21253e-07 -0.000159191 0.0  -9.88287e-07 -0.000143703 0.0  2.82159e-06 -0.000121689 0.0  1.27939e-05 -9.53985e-05 0.0  2.89762e-05 -6.76104e-05 0.0  7.48782e-05 -2.00611e-05 0.0  7.38393e-05 -2.77264e-05 0.0  7.24182e-05 -3.53017e-05 0.0  7.05372e-05 -4.27402e-05 0.0  6.81502e-05 -4.99849e-05 0.0  6.52469e-05 -5.70207e-05 0.0  6.18754e-05 -6.38914e-05 0.0  5.80785e-05 -7.05863e-05 0.0  5.49651e-05 6.70741e-05 0.0  5.88937e-05 6.0689e-05 0.0  6.27258e-05 5.4482e-05 0.0  6.62552e-05 4.83313e-05 0.0  6.93481e-05 4.21241e-05 0.0  7.18838e-05 3.57529e-05 0.0  7.38087e-05 2.91281e-05 0.0  7.52127e-05 2.23405e-05 0.0  2.70859e-05 7.0451e-05 0.0  1.11206e-05 9.829e-05 0.0  1.43468e-06 0.000124432 0.0  -2.08155e-06 0.000146076 0.0  -3.07883e-07 0.000160944 0.0  5.19207e-06 0.000168265 0.0  1.24847e-05 0.000168497 0.0  1.995e-05 0.000162761 0.0  2.6836e-05 0.000152948 0.0  3.31427e-05 0.000141017 0.0  3.85522e-05 0.000128553 0.0  4.35335e-05 0.000116778 0.0  4.8371e-05 0.000105449 0.0  5.32597e-05 9.4867e-05 0.0  5.82911e-05 8.49117e-05 0.0  5.67962e-05 -4.27801e-05 0.0  8.53417e-05 -1.77678e-05 0.0  0.000120631 2.03543e-06 0.0  0.000155193 1.48838e-05 0.0  0.000187236 1.99374e-05 0.0  0.000212708 1.78239e-05 0.0  0.000229092 1.03485e-05 0.0  0.000234565 4.34981e-07 0.0  0.000228541 -9.42695e-06 0.0  0.000211637 -1.67399e-05 0.0  0.000185713 -1.85748e-05 0.0  0.000153311 -1.31684e-05 0.0  0.000118526 6.50169e-08 0.0  8.31271e-05 2.02434e-05 0.0  5.46916e-05 4.55579e-05 0.0  0 5.41049e-07 0.0  0 5.41049e-07 0.0  
            </DataArray>
         </PointData> 
      </Piece>
   </UnstructuredGrid> 
</VTKFile>
