<?xml version="1.0"?>
<VTKFile type="UnstructuredGrid" version="0.1" byte_order="LittleEndian">
   <UnstructuredGrid>
      <Piece NumberOfPoints="63" NumberOfCells="0" > 
         <Points> 
            <DataArray type="Float64" Name="Position" NumberOfComponents="3" format="ascii"> 
               0.000473559  -0.000642344  0  
               0.000408535  -0.000685829  0  
               0.000339552  -0.000722713  0  
               0.000267278  -0.000752639  0  
               0.000192413  -0.000775316  0  
               0.000115682  -0.000790525  0  
               3.78268e-05  -0.00079812  0  
               -4.03976e-05  -0.000798026  0  
               -0.000118234  -0.000790244  0  
               -0.000194929  -0.00077485  0  
               -0.000269739  -0.000751992  0  
               -0.000341941  -0.000721893  0  
               -0.000410835  -0.000684843  0  
               -0.000475754  -0.000641202  0  
               -0.000536069  -0.000591391  0  
               0.000774734  -0.000193183  0  
               0.000755388  -0.000258717  0  
               0.000730494  -0.000322351  0  
               0.000700236  -0.000383617  0  
               0.000664838  -0.000442064  0  
               0.000624558  -0.00049726  0  
               0.000579695  -0.000548799  0  
               0.000530578  -0.000596303  0  
               0.000530559  0.000596286  0  
               0.000579641  0.000548755  0  
               0.000624478  0.000497201  0  
               0.000664741  0.000442002  0  
               0.000700137  0.000383561  0  
               0.000730405  0.000322307  0  
               0.000755323  0.000258689  0  
               0.00077471  0.000193173  0  
               -0.000536069  0.000591391  0  
               -0.000475754  0.000641202  0  
               -0.000410835  0.000684843  0  
               -0.000341941  0.000721893  0  
               -0.000269739  0.000751992  0  
               -0.000194929  0.00077485  0  
               -0.000118234  0.000790244  0  
               -4.03976e-05  0.000798026  0  
               3.78268e-05  0.00079812  0  
               0.000115682  0.000790525  0  
               0.000192413  0.000775316  0  
               0.000267278  0.000752639  0  
               0.000339552  0.000722713  0  
               0.000408535  0.000685829  0  
               0.000473559  0.000642344  0  
               -0.000593089  -0.000533975  0  
               -0.000645857  -0.000469149  0  
               -0.000691532  -0.000399145  0  
               -0.000729611  -0.000324735  0  
               -0.000759672  -0.00024674  0  
               -0.000781385  -0.000166022  0  
               -0.000794509  -8.34719e-05  0  
               -0.0007989  0  0  
               -0.000794509  8.34719e-05  0  
               -0.000781385  0.000166022  0  
               -0.000759672  0.00024674  0  
               -0.000729611  0.000324735  0  
               -0.000691532  0.000399145  0  
               -0.000645857  0.000469149  0  
               -0.000593089  0.000533975  0  
               0.0007915  -8e-05  0  
               0.0007915  8e-05  0  
            </DataArray>
         </Points> 

         <Cells>
            <DataArray type="Int32" Name="connectivity" NumberOfComponents="1" format="ascii">
               
            </DataArray> 
            <DataArray type="Int32" Name="offsets" NumberOfComponents="1" format="ascii">
               
            </DataArray>
            <DataArray type="UInt8"  Name="types" NumberOfComponents="1" format="ascii">
               
            </DataArray>
         </Cells>
         <PointData Scalars="Rank " Vectors="Displacement-Cylinder Force ">
            <DataArray type="UInt32" Name="Rank" NumberOfComponents="1" format="ascii">
               0 0 0 0 0 0 0 0 0 0 0 0 0 0 0 0 0 0 0 0 0 0 0 0 0 0 0 0 0 0 0 0 0 0 0 0 0 0 0 0 0 0 0 0 0 0 0 0 0 0 0 0 0 0 0 0 0 0 0 0 0 0 0 
            </DataArray>
            <DataArray type="Float64" Name="Displacement-Cylinder" NumberOfComponents="3" format="ascii">
               0 6.84738e-07 0.0  0 6.84738e-07 0.0  0 6.84738e-07 0.0  0 6.84738e-07 0.0  0 6.84738e-07 0.0  0 6.84738e-07 0.0  0 6.84738e-07 0.0  0 6.84738e-07 0.0  0 6.84738e-07 0.0  0 6.84738e-07 0.0  0 6.84738e-07 0.0  0 6.84738e-07 0.0  0 6.84738e-07 0.0  0 6.84738e-07 0.0  0 6.84738e-07 0.0  0 6.84738e-07 0.0  0 6.84738e-07 0.0  0 6.84738e-07 0.0  0 6.84738e-07 0.0  0 6.84738e-07 0.0  0 6.84738e-07 0.0  0 6.84738e-07 0.0  0 6.84738e-07 0.0  0 6.84738e-07 0.0  0 6.84738e-07 0.0  0 6.84738e-07 0.0  0 6.84738e-07 0.0  0 6.84738e-07 0.0  0 6.84738e-07 0.0  0 6.84738e-07 0.0  0 6.84738e-07 0.0  0 6.84738e-07 0.0  0 6.84738e-07 0.0  0 6.84738e-07 0.0  0 6.84738e-07 0.0  0 6.84738e-07 0.0  0 6.84738e-07 0.0  0 6.84738e-07 0.0  0 6.84738e-07 0.0  0 6.84738e-07 0.0  0 6.84738e-07 0.0  0 6.84738e-07 0.0  0 6.84738e-07 0.0  0 6.84738e-07 0.0  0 6.84738e-07 0.0  0 6.84738e-07 0.0  0 6.84738e-07 0.0  0 6.84738e-07 0.0  0 6.84738e-07 0.0  0 6.84738e-07 0.0  0 6.84738e-07 0.0  0 6.84738e-07 0.0  0 6.84738e-07 0.0  0 6.84738e-07 0.0  0 6.84738e-07 0.0  0 6.84738e-07 0.0  0 6.84738e-07 0.0  0 6.84738e-07 0.0  0 6.84738e-07 0.0  0 6.84738e-07 0.0  0 6.84738e-07 0.0  0 6.84738e-07 0.0  0 6.84738e-07 0.0  
            </DataArray>
            <DataArray type="Float64" Name="Force" NumberOfComponents="3" format="ascii">
               0.000209082 -2.27216e-05 0.0  0.000220409 2.9394e-05 0.0  5.03609e-05 -0.00010966 0.0  4.5481e-05 -0.00012154 0.0  4.04035e-05 -0.000133931 0.0  3.4845e-05 -0.000147023 0.0  2.82524e-05 -0.000159505 0.0  2.10073e-05 -0.000169638 0.0  1.31109e-05 -0.000175396 0.0  5.37092e-06 -0.000174869 0.0  -4.74684e-07 -0.000166931 0.0  -2.43477e-06 -0.000151205 0.0  1.09123e-06 -0.000128546 0.0  1.0993e-05 -0.000101309 0.0  2.72821e-05 -7.24758e-05 0.0  8.45372e-05 -2.24958e-05 0.0  8.14058e-05 -2.9713e-05 0.0  7.79159e-05 -3.65189e-05 0.0  7.40174e-05 -4.29942e-05 0.0  6.97955e-05 -4.93332e-05 0.0  6.53902e-05 -5.57181e-05 0.0  6.09866e-05 -6.23099e-05 0.0  5.67965e-05 -6.92138e-05 0.0  7.96566e-05 9.49319e-05 0.0  8.4897e-05 8.62749e-05 0.0  8.95226e-05 7.76392e-05 0.0  9.3093e-05 6.86035e-05 0.0  9.55078e-05 5.91367e-05 0.0  9.67226e-05 4.92412e-05 0.0  9.68781e-05 3.90593e-05 0.0  9.61789e-05 2.88561e-05 0.0  1.92515e-05 8.42543e-05 0.0  2.83491e-06 0.000116313 0.0  -6.85868e-06 0.000147219 0.0  -9.60239e-06 0.000173681 0.0  -6.26e-06 0.000193215 0.0  1.61129e-06 0.000204717 0.0  1.20447e-05 0.000208288 0.0  2.29825e-05 0.000205045 0.0  3.34961e-05 0.000196488 0.0  4.37118e-05 0.000184492 0.0  5.27414e-05 0.000170956 0.0  6.10276e-05 0.000157507 0.0  6.90021e-05 0.000144479 0.0  7.68465e-05 0.000131717 0.0  8.45229e-05 0.000119168 0.0  5.54048e-05 -4.68642e-05 0.0  8.44145e-05 -2.08125e-05 0.0  0.000120441 -8.57202e-08 0.0  0.000155741 1.3501e-05 0.0  0.000188473 1.90815e-05 0.0  0.000214445 1.73046e-05 0.0  0.000231051 1.00405e-05 0.0  0.000236392 3.2678e-07 0.0  0.000229847 -9.2381e-06 0.0  0.000212032 -1.60384e-05 0.0  0.000184826 -1.69813e-05 0.0  0.000150874 -1.01756e-05 0.0  0.000114376 5.06392e-06 0.0  7.72928e-05 2.79103e-05 0.0  4.7397e-05 5.65736e-05 0.0  0 6.84734e-07 0.0  0 6.84734e-07 0.0  
            </DataArray>
         </PointData> 
      </Piece>
   </UnstructuredGrid> 
</VTKFile>
