<?xml version="1.0"?>
<VTKFile type="UnstructuredGrid" version="0.1" byte_order="LittleEndian">
   <UnstructuredGrid>
      <Piece NumberOfPoints="63" NumberOfCells="0" > 
         <Points> 
            <DataArray type="Float64" Name="Position" NumberOfComponents="3" format="ascii"> 
               0.000473559  -0.000642344  0  
               0.000408535  -0.000685829  0  
               0.000339552  -0.000722713  0  
               0.000267278  -0.000752639  0  
               0.000192413  -0.000775316  0  
               0.000115682  -0.000790525  0  
               3.78268e-05  -0.00079812  0  
               -4.03976e-05  -0.000798026  0  
               -0.000118234  -0.000790244  0  
               -0.000194929  -0.00077485  0  
               -0.000269739  -0.000751992  0  
               -0.000341941  -0.000721893  0  
               -0.000410835  -0.000684843  0  
               -0.000475754  -0.000641202  0  
               -0.000536069  -0.000591391  0  
               0.000774734  -0.000193183  0  
               0.000755388  -0.000258717  0  
               0.000730494  -0.000322351  0  
               0.000700236  -0.000383617  0  
               0.000664838  -0.000442064  0  
               0.000624558  -0.00049726  0  
               0.000579695  -0.000548799  0  
               0.000530578  -0.000596303  0  
               0.000530559  0.000596286  0  
               0.000579641  0.000548755  0  
               0.000624478  0.000497201  0  
               0.000664741  0.000442002  0  
               0.000700137  0.000383561  0  
               0.000730405  0.000322307  0  
               0.000755323  0.000258689  0  
               0.00077471  0.000193173  0  
               -0.000536069  0.000591391  0  
               -0.000475754  0.000641202  0  
               -0.000410835  0.000684843  0  
               -0.000341941  0.000721893  0  
               -0.000269739  0.000751992  0  
               -0.000194929  0.00077485  0  
               -0.000118234  0.000790244  0  
               -4.03976e-05  0.000798026  0  
               3.78268e-05  0.00079812  0  
               0.000115682  0.000790525  0  
               0.000192413  0.000775316  0  
               0.000267278  0.000752639  0  
               0.000339552  0.000722713  0  
               0.000408535  0.000685829  0  
               0.000473559  0.000642344  0  
               -0.000593089  -0.000533975  0  
               -0.000645857  -0.000469149  0  
               -0.000691532  -0.000399145  0  
               -0.000729611  -0.000324735  0  
               -0.000759672  -0.00024674  0  
               -0.000781385  -0.000166022  0  
               -0.000794509  -8.34719e-05  0  
               -0.0007989  0  0  
               -0.000794509  8.34719e-05  0  
               -0.000781385  0.000166022  0  
               -0.000759672  0.00024674  0  
               -0.000729611  0.000324735  0  
               -0.000691532  0.000399145  0  
               -0.000645857  0.000469149  0  
               -0.000593089  0.000533975  0  
               0.0007915  -8e-05  0  
               0.0007915  8e-05  0  
            </DataArray>
         </Points> 

         <Cells>
            <DataArray type="Int32" Name="connectivity" NumberOfComponents="1" format="ascii">
               
            </DataArray> 
            <DataArray type="Int32" Name="offsets" NumberOfComponents="1" format="ascii">
               
            </DataArray>
            <DataArray type="UInt8"  Name="types" NumberOfComponents="1" format="ascii">
               
            </DataArray>
         </Cells>
         <PointData Scalars="Rank " Vectors="Displacement-Cylinder Force ">
            <DataArray type="UInt32" Name="Rank" NumberOfComponents="1" format="ascii">
               0 0 0 0 0 0 0 0 0 0 0 0 0 0 0 0 0 0 0 0 0 0 0 0 0 0 0 0 0 0 0 0 0 0 0 0 0 0 0 0 0 0 0 0 0 0 0 0 0 0 0 0 0 0 0 0 0 0 0 0 0 0 0 
            </DataArray>
            <DataArray type="Float64" Name="Displacement-Cylinder" NumberOfComponents="3" format="ascii">
               0 9.22871e-08 0.0  0 9.22871e-08 0.0  0 9.22871e-08 0.0  0 9.22871e-08 0.0  0 9.22871e-08 0.0  0 9.22871e-08 0.0  0 9.22871e-08 0.0  0 9.22871e-08 0.0  0 9.22871e-08 0.0  0 9.22871e-08 0.0  0 9.22871e-08 0.0  0 9.22871e-08 0.0  0 9.22871e-08 0.0  0 9.22871e-08 0.0  0 9.22871e-08 0.0  0 9.22871e-08 0.0  0 9.22871e-08 0.0  0 9.22871e-08 0.0  0 9.22871e-08 0.0  0 9.22871e-08 0.0  0 9.22871e-08 0.0  0 9.22871e-08 0.0  0 9.22871e-08 0.0  0 9.22871e-08 0.0  0 9.22871e-08 0.0  0 9.22871e-08 0.0  0 9.22871e-08 0.0  0 9.22871e-08 0.0  0 9.22871e-08 0.0  0 9.22871e-08 0.0  0 9.22871e-08 0.0  0 9.22871e-08 0.0  0 9.22871e-08 0.0  0 9.22871e-08 0.0  0 9.22871e-08 0.0  0 9.22871e-08 0.0  0 9.22871e-08 0.0  0 9.22871e-08 0.0  0 9.22871e-08 0.0  0 9.22871e-08 0.0  0 9.22871e-08 0.0  0 9.22871e-08 0.0  0 9.22871e-08 0.0  0 9.22871e-08 0.0  0 9.22871e-08 0.0  0 9.22871e-08 0.0  0 9.22871e-08 0.0  0 9.22871e-08 0.0  0 9.22871e-08 0.0  0 9.22871e-08 0.0  0 9.22871e-08 0.0  0 9.22871e-08 0.0  0 9.22871e-08 0.0  0 9.22871e-08 0.0  0 9.22871e-08 0.0  0 9.22871e-08 0.0  0 9.22871e-08 0.0  0 9.22871e-08 0.0  0 9.22871e-08 0.0  0 9.22871e-08 0.0  0 9.22871e-08 0.0  0 9.22871e-08 0.0  0 9.22871e-08 0.0  
            </DataArray>
            <DataArray type="Float64" Name="Force" NumberOfComponents="3" format="ascii">
               0.000177354 -3.09616e-05 0.0  0.000176772 3.02014e-05 0.0  5.92147e-05 -0.0001261 0.0  5.4246e-05 -0.000139815 0.0  4.88143e-05 -0.000154311 0.0  4.24191e-05 -0.000169421 0.0  3.44395e-05 -0.000183028 0.0  2.58303e-05 -0.000193035 0.0  1.64799e-05 -0.000197329 0.0  7.4455e-06 -0.000194267 0.0  9.89616e-07 -0.000182776 0.0  -7.94311e-07 -0.000162916 0.0  3.72644e-06 -0.000135941 0.0  1.54242e-05 -0.000104517 0.0  3.39451e-05 -7.21964e-05 0.0  8.0176e-05 -2.99145e-05 0.0  8.21714e-05 -3.86233e-05 0.0  8.27542e-05 -4.63873e-05 0.0  8.14941e-05 -5.30701e-05 0.0  7.84926e-05 -5.90968e-05 0.0  7.42973e-05 -6.51159e-05 0.0  6.96011e-05 -7.16544e-05 0.0  6.48782e-05 -7.88726e-05 0.0  6.46705e-05 7.85156e-05 0.0  6.93872e-05 7.13813e-05 0.0  7.40604e-05 6.48984e-05 0.0  7.82148e-05 5.89219e-05 0.0  8.11614e-05 5.29098e-05 0.0  8.23717e-05 4.62193e-05 0.0  8.17592e-05 3.84378e-05 0.0  7.97909e-05 2.97125e-05 0.0  3.40345e-05 7.20954e-05 0.0  1.54886e-05 0.00010444 0.0  3.762e-06 0.000135883 0.0  -7.85087e-07 0.00016285 0.0  9.72487e-07 0.000182664 0.0  7.39474e-06 0.000194071 0.0  1.63793e-05 0.000197021 0.0  2.56676e-05 0.000192606 0.0  3.42097e-05 0.000182503 0.0  4.21221e-05 0.000168842 0.0  4.84725e-05 0.000153722 0.0  5.38923e-05 0.000139276 0.0  5.88575e-05 0.000125607 0.0  6.37221e-05 0.00011233 0.0  6.88885e-05 9.96258e-05 0.0  6.54514e-05 -4.38028e-05 0.0  9.77673e-05 -1.57893e-05 0.0  0.000137248 5.96042e-06 0.0  0.000175849 1.96562e-05 0.0  0.00021149 2.45025e-05 0.0  0.000239846 2.12751e-05 0.0  0.000258159 1.20075e-05 0.0  0.000264493 -3.80529e-08 0.0  0.000258204 -1.20871e-05 0.0  0.000239933 -2.13645e-05 0.0  0.000211609 -2.46079e-05 0.0  0.000175991 -1.97783e-05 0.0  0.000137395 -6.09313e-06 0.0  9.7908e-05 1.56561e-05 0.0  6.55667e-05 4.36821e-05 0.0  0 9.22862e-08 0.0  0 9.22862e-08 0.0  
            </DataArray>
         </PointData> 
      </Piece>
   </UnstructuredGrid> 
</VTKFile>
