<?xml version="1.0"?>
<VTKFile type="UnstructuredGrid" version="0.1" byte_order="LittleEndian">
   <UnstructuredGrid>
      <Piece NumberOfPoints="63" NumberOfCells="0" > 
         <Points> 
            <DataArray type="Float64" Name="Position" NumberOfComponents="3" format="ascii"> 
               0.000473559  -0.000642344  0  
               0.000408535  -0.000685829  0  
               0.000339552  -0.000722713  0  
               0.000267278  -0.000752639  0  
               0.000192413  -0.000775316  0  
               0.000115682  -0.000790525  0  
               3.78268e-05  -0.00079812  0  
               -4.03976e-05  -0.000798026  0  
               -0.000118234  -0.000790244  0  
               -0.000194929  -0.00077485  0  
               -0.000269739  -0.000751992  0  
               -0.000341941  -0.000721893  0  
               -0.000410835  -0.000684843  0  
               -0.000475754  -0.000641202  0  
               -0.000536069  -0.000591391  0  
               0.000774734  -0.000193183  0  
               0.000755388  -0.000258717  0  
               0.000730494  -0.000322351  0  
               0.000700236  -0.000383617  0  
               0.000664838  -0.000442064  0  
               0.000624558  -0.00049726  0  
               0.000579695  -0.000548799  0  
               0.000530578  -0.000596303  0  
               0.000530559  0.000596286  0  
               0.000579641  0.000548755  0  
               0.000624478  0.000497201  0  
               0.000664741  0.000442002  0  
               0.000700137  0.000383561  0  
               0.000730405  0.000322307  0  
               0.000755323  0.000258689  0  
               0.00077471  0.000193173  0  
               -0.000536069  0.000591391  0  
               -0.000475754  0.000641202  0  
               -0.000410835  0.000684843  0  
               -0.000341941  0.000721893  0  
               -0.000269739  0.000751992  0  
               -0.000194929  0.00077485  0  
               -0.000118234  0.000790244  0  
               -4.03976e-05  0.000798026  0  
               3.78268e-05  0.00079812  0  
               0.000115682  0.000790525  0  
               0.000192413  0.000775316  0  
               0.000267278  0.000752639  0  
               0.000339552  0.000722713  0  
               0.000408535  0.000685829  0  
               0.000473559  0.000642344  0  
               -0.000593089  -0.000533975  0  
               -0.000645857  -0.000469149  0  
               -0.000691532  -0.000399145  0  
               -0.000729611  -0.000324735  0  
               -0.000759672  -0.00024674  0  
               -0.000781385  -0.000166022  0  
               -0.000794509  -8.34719e-05  0  
               -0.0007989  0  0  
               -0.000794509  8.34719e-05  0  
               -0.000781385  0.000166022  0  
               -0.000759672  0.00024674  0  
               -0.000729611  0.000324735  0  
               -0.000691532  0.000399145  0  
               -0.000645857  0.000469149  0  
               -0.000593089  0.000533975  0  
               0.0007915  -8e-05  0  
               0.0007915  8e-05  0  
            </DataArray>
         </Points> 

         <Cells>
            <DataArray type="Int32" Name="connectivity" NumberOfComponents="1" format="ascii">
               
            </DataArray> 
            <DataArray type="Int32" Name="offsets" NumberOfComponents="1" format="ascii">
               
            </DataArray>
            <DataArray type="UInt8"  Name="types" NumberOfComponents="1" format="ascii">
               
            </DataArray>
         </Cells>
         <PointData Scalars="Rank " Vectors="Displacement-Cylinder Force ">
            <DataArray type="UInt32" Name="Rank" NumberOfComponents="1" format="ascii">
               0 0 0 0 0 0 0 0 0 0 0 0 0 0 0 0 0 0 0 0 0 0 0 0 0 0 0 0 0 0 0 0 0 0 0 0 0 0 0 0 0 0 0 0 0 0 0 0 0 0 0 0 0 0 0 0 0 0 0 0 0 0 0 
            </DataArray>
            <DataArray type="Float64" Name="Displacement-Cylinder" NumberOfComponents="3" format="ascii">
               0 1.64401e-06 0.0  0 1.64401e-06 0.0  0 1.64401e-06 0.0  0 1.64401e-06 0.0  0 1.64401e-06 0.0  0 1.64401e-06 0.0  0 1.64401e-06 0.0  0 1.64401e-06 0.0  0 1.64401e-06 0.0  0 1.64401e-06 0.0  0 1.64401e-06 0.0  0 1.64401e-06 0.0  0 1.64401e-06 0.0  0 1.64401e-06 0.0  0 1.64401e-06 0.0  0 1.64401e-06 0.0  0 1.64401e-06 0.0  0 1.64401e-06 0.0  0 1.64401e-06 0.0  0 1.64401e-06 0.0  0 1.64401e-06 0.0  0 1.64401e-06 0.0  0 1.64401e-06 0.0  0 1.64401e-06 0.0  0 1.64401e-06 0.0  0 1.64401e-06 0.0  0 1.64401e-06 0.0  0 1.64401e-06 0.0  0 1.64401e-06 0.0  0 1.64401e-06 0.0  0 1.64401e-06 0.0  0 1.64401e-06 0.0  0 1.64401e-06 0.0  0 1.64401e-06 0.0  0 1.64401e-06 0.0  0 1.64401e-06 0.0  0 1.64401e-06 0.0  0 1.64401e-06 0.0  0 1.64401e-06 0.0  0 1.64401e-06 0.0  0 1.64401e-06 0.0  0 1.64401e-06 0.0  0 1.64401e-06 0.0  0 1.64401e-06 0.0  0 1.64401e-06 0.0  0 1.64401e-06 0.0  0 1.64401e-06 0.0  0 1.64401e-06 0.0  0 1.64401e-06 0.0  0 1.64401e-06 0.0  0 1.64401e-06 0.0  0 1.64401e-06 0.0  0 1.64401e-06 0.0  0 1.64401e-06 0.0  0 1.64401e-06 0.0  0 1.64401e-06 0.0  0 1.64401e-06 0.0  0 1.64401e-06 0.0  0 1.64401e-06 0.0  0 1.64401e-06 0.0  0 1.64401e-06 0.0  0 1.64401e-06 0.0  0 1.64401e-06 0.0  
            </DataArray>
            <DataArray type="Float64" Name="Force" NumberOfComponents="3" format="ascii">
               0.000216273 -2.53192e-05 0.0  0.000230058 2.95062e-05 0.0  5.09737e-05 -0.000111338 0.0  4.63115e-05 -0.000123828 0.0  4.13996e-05 -0.00013684 0.0  3.59007e-05 -0.000150581 0.0  2.92408e-05 -0.000163669 0.0  2.18249e-05 -0.000174245 0.0  1.36748e-05 -0.000180201 0.0  5.652e-06 -0.000179586 0.0  -4.10836e-07 -0.000171272 0.0  -2.46226e-06 -0.000154938 0.0  1.13779e-06 -0.000131509 0.0  1.12924e-05 -0.000103418 0.0  2.79458e-05 -7.38002e-05 0.0  8.68781e-05 -2.36675e-05 0.0  8.3328e-05 -3.0734e-05 0.0  7.94513e-05 -3.73284e-05 0.0  7.51247e-05 -4.35318e-05 0.0  7.04592e-05 -4.96272e-05 0.0  6.56888e-05 -5.58794e-05 0.0  6.10711e-05 -6.24894e-05 0.0  5.68388e-05 -6.95602e-05 0.0  8.69368e-05 0.000102925 0.0  9.24999e-05 9.35472e-05 0.0  9.73291e-05 8.4195e-05 0.0  0.000100855 7.43402e-05 0.0  0.000102992 6.39422e-05 0.0  0.000103655 5.29986e-05 0.0  0.000103112 4.1728e-05 0.0  0.000101576 3.04288e-05 0.0  1.91582e-05 8.64146e-05 0.0  2.22241e-06 0.000119873 0.0  -7.83373e-06 0.000152427 0.0  -1.06575e-05 0.000180607 0.0  -7.09729e-06 0.000201842 0.0  1.29682e-06 0.000214906 0.0  1.25468e-05 0.000219751 0.0  2.44504e-05 0.00021747 0.0  3.60168e-05 0.000209417 0.0  4.73138e-05 0.000197472 0.0  5.73601e-05 0.000183648 0.0  6.65558e-05 0.000169577 0.0  7.54041e-05 0.000155923 0.0  8.39865e-05 0.000142555 0.0  9.22525e-05 0.000129192 0.0  5.66893e-05 -4.75628e-05 0.0  8.63236e-05 -2.09466e-05 0.0  0.0001231 1.80867e-07 0.0  0.00015913 1.39815e-05 0.0  0.00019253 1.95892e-05 0.0  0.000219035 1.76736e-05 0.0  0.000235991 1.01442e-05 0.0  0.000241464 1.08627e-07 0.0  0.000234818 -9.77294e-06 0.0  0.000216665 -1.68254e-05 0.0  0.000188898 -1.78799e-05 0.0  0.000154205 -1.09777e-05 0.0  0.000116835 4.61737e-06 0.0  7.88288e-05 2.81081e-05 0.0  4.80437e-05 5.77195e-05 0.0  0 1.64401e-06 0.0  0 1.64401e-06 0.0  
            </DataArray>
         </PointData> 
      </Piece>
   </UnstructuredGrid> 
</VTKFile>
