<?xml version="1.0"?>
<VTKFile type="UnstructuredGrid" version="0.1" byte_order="LittleEndian">
   <UnstructuredGrid>
      <Piece NumberOfPoints="63" NumberOfCells="0" > 
         <Points> 
            <DataArray type="Float64" Name="Position" NumberOfComponents="3" format="ascii"> 
               0.000473559  -0.000642344  0  
               0.000408535  -0.000685829  0  
               0.000339552  -0.000722713  0  
               0.000267278  -0.000752639  0  
               0.000192413  -0.000775316  0  
               0.000115682  -0.000790525  0  
               3.78268e-05  -0.00079812  0  
               -4.03976e-05  -0.000798026  0  
               -0.000118234  -0.000790244  0  
               -0.000194929  -0.00077485  0  
               -0.000269739  -0.000751992  0  
               -0.000341941  -0.000721893  0  
               -0.000410835  -0.000684843  0  
               -0.000475754  -0.000641202  0  
               -0.000536069  -0.000591391  0  
               0.000774734  -0.000193183  0  
               0.000755388  -0.000258717  0  
               0.000730494  -0.000322351  0  
               0.000700236  -0.000383617  0  
               0.000664838  -0.000442064  0  
               0.000624558  -0.00049726  0  
               0.000579695  -0.000548799  0  
               0.000530578  -0.000596303  0  
               0.000530559  0.000596286  0  
               0.000579641  0.000548755  0  
               0.000624478  0.000497201  0  
               0.000664741  0.000442002  0  
               0.000700137  0.000383561  0  
               0.000730405  0.000322307  0  
               0.000755323  0.000258689  0  
               0.00077471  0.000193173  0  
               -0.000536069  0.000591391  0  
               -0.000475754  0.000641202  0  
               -0.000410835  0.000684843  0  
               -0.000341941  0.000721893  0  
               -0.000269739  0.000751992  0  
               -0.000194929  0.00077485  0  
               -0.000118234  0.000790244  0  
               -4.03976e-05  0.000798026  0  
               3.78268e-05  0.00079812  0  
               0.000115682  0.000790525  0  
               0.000192413  0.000775316  0  
               0.000267278  0.000752639  0  
               0.000339552  0.000722713  0  
               0.000408535  0.000685829  0  
               0.000473559  0.000642344  0  
               -0.000593089  -0.000533975  0  
               -0.000645857  -0.000469149  0  
               -0.000691532  -0.000399145  0  
               -0.000729611  -0.000324735  0  
               -0.000759672  -0.00024674  0  
               -0.000781385  -0.000166022  0  
               -0.000794509  -8.34719e-05  0  
               -0.0007989  0  0  
               -0.000794509  8.34719e-05  0  
               -0.000781385  0.000166022  0  
               -0.000759672  0.00024674  0  
               -0.000729611  0.000324735  0  
               -0.000691532  0.000399145  0  
               -0.000645857  0.000469149  0  
               -0.000593089  0.000533975  0  
               0.0007915  -8e-05  0  
               0.0007915  8e-05  0  
            </DataArray>
         </Points> 

         <Cells>
            <DataArray type="Int32" Name="connectivity" NumberOfComponents="1" format="ascii">
               
            </DataArray> 
            <DataArray type="Int32" Name="offsets" NumberOfComponents="1" format="ascii">
               
            </DataArray>
            <DataArray type="UInt8"  Name="types" NumberOfComponents="1" format="ascii">
               
            </DataArray>
         </Cells>
         <PointData Scalars="Rank " Vectors="Displacement-Cylinder Force ">
            <DataArray type="UInt32" Name="Rank" NumberOfComponents="1" format="ascii">
               0 0 0 0 0 0 0 0 0 0 0 0 0 0 0 0 0 0 0 0 0 0 0 0 0 0 0 0 0 0 0 0 0 0 0 0 0 0 0 0 0 0 0 0 0 0 0 0 0 0 0 0 0 0 0 0 0 0 0 0 0 0 0 
            </DataArray>
            <DataArray type="Float64" Name="Displacement-Cylinder" NumberOfComponents="3" format="ascii">
               0 5.42435e-07 0.0  0 5.42435e-07 0.0  0 5.42435e-07 0.0  0 5.42435e-07 0.0  0 5.42435e-07 0.0  0 5.42435e-07 0.0  0 5.42435e-07 0.0  0 5.42435e-07 0.0  0 5.42435e-07 0.0  0 5.42435e-07 0.0  0 5.42435e-07 0.0  0 5.42435e-07 0.0  0 5.42435e-07 0.0  0 5.42435e-07 0.0  0 5.42435e-07 0.0  0 5.42435e-07 0.0  0 5.42435e-07 0.0  0 5.42435e-07 0.0  0 5.42435e-07 0.0  0 5.42435e-07 0.0  0 5.42435e-07 0.0  0 5.42435e-07 0.0  0 5.42435e-07 0.0  0 5.42435e-07 0.0  0 5.42435e-07 0.0  0 5.42435e-07 0.0  0 5.42435e-07 0.0  0 5.42435e-07 0.0  0 5.42435e-07 0.0  0 5.42435e-07 0.0  0 5.42435e-07 0.0  0 5.42435e-07 0.0  0 5.42435e-07 0.0  0 5.42435e-07 0.0  0 5.42435e-07 0.0  0 5.42435e-07 0.0  0 5.42435e-07 0.0  0 5.42435e-07 0.0  0 5.42435e-07 0.0  0 5.42435e-07 0.0  0 5.42435e-07 0.0  0 5.42435e-07 0.0  0 5.42435e-07 0.0  0 5.42435e-07 0.0  0 5.42435e-07 0.0  0 5.42435e-07 0.0  0 5.42435e-07 0.0  0 5.42435e-07 0.0  0 5.42435e-07 0.0  0 5.42435e-07 0.0  0 5.42435e-07 0.0  0 5.42435e-07 0.0  0 5.42435e-07 0.0  0 5.42435e-07 0.0  0 5.42435e-07 0.0  0 5.42435e-07 0.0  0 5.42435e-07 0.0  0 5.42435e-07 0.0  0 5.42435e-07 0.0  0 5.42435e-07 0.0  0 5.42435e-07 0.0  0 5.42435e-07 0.0  0 5.42435e-07 0.0  
            </DataArray>
            <DataArray type="Float64" Name="Force" NumberOfComponents="3" format="ascii">
               0.000179818 -1.89652e-05 0.0  0.000179387 2.42274e-05 0.0  5.22606e-05 -0.000111693 0.0  4.68166e-05 -0.000122671 0.0  4.11567e-05 -0.000134206 0.0  3.50841e-05 -0.000146369 0.0  2.80985e-05 -0.000157667 0.0  2.07473e-05 -0.000166552 0.0  1.29355e-05 -0.000171185 0.0  5.41799e-06 -0.000169887 0.0  -1.08641e-07 -0.000161561 0.0  -1.77803e-06 -0.000145856 0.0  1.91568e-06 -0.000123593 0.0  1.18186e-05 -9.70355e-05 0.0  2.79715e-05 -6.89847e-05 0.0  7.57959e-05 -2.06785e-05 0.0  7.49612e-05 -2.84655e-05 0.0  7.3702e-05 -3.61816e-05 0.0  7.19252e-05 -4.37579e-05 0.0  6.95851e-05 -5.11326e-05 0.0  6.66806e-05 -5.829e-05 0.0  6.32622e-05 -6.52755e-05 0.0  5.93841e-05 -7.20864e-05 0.0  5.4037e-05 6.59994e-05 0.0  5.79193e-05 5.97015e-05 0.0  6.17395e-05 5.35892e-05 0.0  6.52907e-05 4.75343e-05 0.0  6.844e-05 4.14212e-05 0.0  7.10741e-05 3.51422e-05 0.0  7.31404e-05 2.86046e-05 0.0  7.47221e-05 2.18845e-05 0.0  2.79334e-05 6.93591e-05 0.0  1.19343e-05 9.7007e-05 0.0  2.18328e-06 0.000122958 0.0  -1.43162e-06 0.000144426 0.0  2.1243e-07 0.00015914 0.0  5.55631e-06 0.000166339 0.0  1.26723e-05 0.000166488 0.0  1.99531e-05 0.000160713 0.0  2.66541e-05 0.000150906 0.0  3.27807e-05 0.000139026 0.0  3.80269e-05 0.00012665 0.0  4.28595e-05 0.00011499 0.0  4.7572e-05 0.000103791 0.0  5.23569e-05 9.33568e-05 0.0  5.72964e-05 8.35607e-05 0.0  5.57481e-05 -4.39812e-05 0.0  8.43488e-05 -1.87088e-05 0.0  0.000119744 1.32946e-06 0.0  0.000154447 1.43793e-05 0.0  0.000186658 1.95954e-05 0.0  0.000212318 1.76007e-05 0.0  0.000228899 1.01958e-05 0.0  0.000234571 3.08686e-07 0.0  0.00022874 -9.56832e-06 0.0  0.000212017 -1.69376e-05 0.0  0.000186257 -1.887e-05 0.0  0.000153994 -1.35953e-05 0.0  0.000119318 -5.21844e-07 0.0  8.3993e-05 1.94742e-05 0.0  5.55891e-05 4.4591e-05 0.0  0 5.42442e-07 0.0  0 5.42442e-07 0.0  
            </DataArray>
         </PointData> 
      </Piece>
   </UnstructuredGrid> 
</VTKFile>
