<?xml version="1.0"?>
<VTKFile type="UnstructuredGrid" version="0.1" byte_order="LittleEndian">
   <UnstructuredGrid>
      <Piece NumberOfPoints="63" NumberOfCells="0" > 
         <Points> 
            <DataArray type="Float64" Name="Position" NumberOfComponents="3" format="ascii"> 
               0.000473559  -0.000642344  0  
               0.000408535  -0.000685829  0  
               0.000339552  -0.000722713  0  
               0.000267278  -0.000752639  0  
               0.000192413  -0.000775316  0  
               0.000115682  -0.000790525  0  
               3.78268e-05  -0.00079812  0  
               -4.03976e-05  -0.000798026  0  
               -0.000118234  -0.000790244  0  
               -0.000194929  -0.00077485  0  
               -0.000269739  -0.000751992  0  
               -0.000341941  -0.000721893  0  
               -0.000410835  -0.000684843  0  
               -0.000475754  -0.000641202  0  
               -0.000536069  -0.000591391  0  
               0.000774734  -0.000193183  0  
               0.000755388  -0.000258717  0  
               0.000730494  -0.000322351  0  
               0.000700236  -0.000383617  0  
               0.000664838  -0.000442064  0  
               0.000624558  -0.00049726  0  
               0.000579695  -0.000548799  0  
               0.000530578  -0.000596303  0  
               0.000530559  0.000596286  0  
               0.000579641  0.000548755  0  
               0.000624478  0.000497201  0  
               0.000664741  0.000442002  0  
               0.000700137  0.000383561  0  
               0.000730405  0.000322307  0  
               0.000755323  0.000258689  0  
               0.00077471  0.000193173  0  
               -0.000536069  0.000591391  0  
               -0.000475754  0.000641202  0  
               -0.000410835  0.000684843  0  
               -0.000341941  0.000721893  0  
               -0.000269739  0.000751992  0  
               -0.000194929  0.00077485  0  
               -0.000118234  0.000790244  0  
               -4.03976e-05  0.000798026  0  
               3.78268e-05  0.00079812  0  
               0.000115682  0.000790525  0  
               0.000192413  0.000775316  0  
               0.000267278  0.000752639  0  
               0.000339552  0.000722713  0  
               0.000408535  0.000685829  0  
               0.000473559  0.000642344  0  
               -0.000593089  -0.000533975  0  
               -0.000645857  -0.000469149  0  
               -0.000691532  -0.000399145  0  
               -0.000729611  -0.000324735  0  
               -0.000759672  -0.00024674  0  
               -0.000781385  -0.000166022  0  
               -0.000794509  -8.34719e-05  0  
               -0.0007989  0  0  
               -0.000794509  8.34719e-05  0  
               -0.000781385  0.000166022  0  
               -0.000759672  0.00024674  0  
               -0.000729611  0.000324735  0  
               -0.000691532  0.000399145  0  
               -0.000645857  0.000469149  0  
               -0.000593089  0.000533975  0  
               0.0007915  -8e-05  0  
               0.0007915  8e-05  0  
            </DataArray>
         </Points> 

         <Cells>
            <DataArray type="Int32" Name="connectivity" NumberOfComponents="1" format="ascii">
               
            </DataArray> 
            <DataArray type="Int32" Name="offsets" NumberOfComponents="1" format="ascii">
               
            </DataArray>
            <DataArray type="UInt8"  Name="types" NumberOfComponents="1" format="ascii">
               
            </DataArray>
         </Cells>
         <PointData Scalars="Rank " Vectors="Displacement-Cylinder Force ">
            <DataArray type="UInt32" Name="Rank" NumberOfComponents="1" format="ascii">
               0 0 0 0 0 0 0 0 0 0 0 0 0 0 0 0 0 0 0 0 0 0 0 0 0 0 0 0 0 0 0 0 0 0 0 0 0 0 0 0 0 0 0 0 0 0 0 0 0 0 0 0 0 0 0 0 0 0 0 0 0 0 0 
            </DataArray>
            <DataArray type="Float64" Name="Displacement-Cylinder" NumberOfComponents="3" format="ascii">
               0 8.41968e-07 0.0  0 8.41968e-07 0.0  0 8.41968e-07 0.0  0 8.41968e-07 0.0  0 8.41968e-07 0.0  0 8.41968e-07 0.0  0 8.41968e-07 0.0  0 8.41968e-07 0.0  0 8.41968e-07 0.0  0 8.41968e-07 0.0  0 8.41968e-07 0.0  0 8.41968e-07 0.0  0 8.41968e-07 0.0  0 8.41968e-07 0.0  0 8.41968e-07 0.0  0 8.41968e-07 0.0  0 8.41968e-07 0.0  0 8.41968e-07 0.0  0 8.41968e-07 0.0  0 8.41968e-07 0.0  0 8.41968e-07 0.0  0 8.41968e-07 0.0  0 8.41968e-07 0.0  0 8.41968e-07 0.0  0 8.41968e-07 0.0  0 8.41968e-07 0.0  0 8.41968e-07 0.0  0 8.41968e-07 0.0  0 8.41968e-07 0.0  0 8.41968e-07 0.0  0 8.41968e-07 0.0  0 8.41968e-07 0.0  0 8.41968e-07 0.0  0 8.41968e-07 0.0  0 8.41968e-07 0.0  0 8.41968e-07 0.0  0 8.41968e-07 0.0  0 8.41968e-07 0.0  0 8.41968e-07 0.0  0 8.41968e-07 0.0  0 8.41968e-07 0.0  0 8.41968e-07 0.0  0 8.41968e-07 0.0  0 8.41968e-07 0.0  0 8.41968e-07 0.0  0 8.41968e-07 0.0  0 8.41968e-07 0.0  0 8.41968e-07 0.0  0 8.41968e-07 0.0  0 8.41968e-07 0.0  0 8.41968e-07 0.0  0 8.41968e-07 0.0  0 8.41968e-07 0.0  0 8.41968e-07 0.0  0 8.41968e-07 0.0  0 8.41968e-07 0.0  0 8.41968e-07 0.0  0 8.41968e-07 0.0  0 8.41968e-07 0.0  0 8.41968e-07 0.0  0 8.41968e-07 0.0  0 8.41968e-07 0.0  0 8.41968e-07 0.0  
            </DataArray>
            <DataArray type="Float64" Name="Force" NumberOfComponents="3" format="ascii">
               0.000217236 -2.27655e-05 0.0  0.000232386 3.22618e-05 0.0  5.08756e-05 -0.000110934 0.0  4.60516e-05 -0.000123114 0.0  4.10119e-05 -0.000135819 0.0  3.5443e-05 -0.000149235 0.0  2.87771e-05 -0.000162017 0.0  2.14088e-05 -0.000172366 0.0  1.33485e-05 -0.000178213 0.0  5.43097e-06 -0.000177624 0.0  -5.58028e-07 -0.000169472 0.0  -2.59608e-06 -0.00015341 0.0  9.37499e-07 -0.000130328 0.0  1.09379e-05 -0.000102624 0.0  2.73775e-05 -7.33608e-05 0.0  8.70735e-05 -2.2841e-05 0.0  8.34764e-05 -3.01235e-05 0.0  7.95592e-05 -3.69159e-05 0.0  7.52537e-05 -4.33216e-05 0.0  7.06532e-05 -4.95996e-05 0.0  6.59594e-05 -5.59861e-05 0.0  6.13788e-05 -6.26556e-05 0.0  5.71183e-05 -6.97006e-05 0.0  8.65067e-05 0.000102578 0.0  9.21839e-05 9.32865e-05 0.0  9.71583e-05 8.40434e-05 0.0  0.00010091 7.43586e-05 0.0  0.000103343 6.42143e-05 0.0  0.000104284 5.35323e-05 0.0  0.000103924 4.24812e-05 0.0  0.000102558 3.14047e-05 0.0  1.70579e-05 8.84512e-05 0.0  4.73907e-07 0.000121795 0.0  -9.2399e-06 0.000154143 0.0  -1.17626e-05 0.000182051 0.0  -7.95358e-06 0.000202964 0.0  6.2539e-07 0.000215684 0.0  1.19869e-05 0.0002202 0.0  2.3955e-05 0.000217611 0.0  3.55433e-05 0.000209321 0.0  4.68316e-05 0.00019722 0.0  5.68591e-05 0.000183278 0.0  6.60345e-05 0.000169215 0.0  7.48645e-05 0.000155524 0.0  8.34413e-05 0.00014207 0.0  9.17294e-05 0.000128711 0.0  5.57485e-05 -4.74273e-05 0.0  8.50276e-05 -2.1055e-05 0.0  0.000121364 -9.14543e-08 0.0  0.000156945 1.36416e-05 0.0  0.000189902 1.92823e-05 0.0  0.000216006 1.74995e-05 0.0  0.000232627 1.0197e-05 0.0  0.00023785 4.52013e-07 0.0  0.000231052 -9.10075e-06 0.0  0.000212852 -1.58043e-05 0.0  0.000185146 -1.65117e-05 0.0  0.000150617 -9.29725e-06 0.0  0.000113506 6.54908e-06 0.0  7.5829e-05 3.02124e-05 0.0  4.54391e-05 5.99011e-05 0.0  0 8.41963e-07 0.0  0 8.41963e-07 0.0  
            </DataArray>
         </PointData> 
      </Piece>
   </UnstructuredGrid> 
</VTKFile>
