<?xml version="1.0"?>
<VTKFile type="UnstructuredGrid" version="0.1" byte_order="LittleEndian">
   <UnstructuredGrid>
      <Piece NumberOfPoints="63" NumberOfCells="0" > 
         <Points> 
            <DataArray type="Float64" Name="Position" NumberOfComponents="3" format="ascii"> 
               0.000473559  -0.000642344  0  
               0.000408535  -0.000685829  0  
               0.000339552  -0.000722713  0  
               0.000267278  -0.000752639  0  
               0.000192413  -0.000775316  0  
               0.000115682  -0.000790525  0  
               3.78268e-05  -0.00079812  0  
               -4.03976e-05  -0.000798026  0  
               -0.000118234  -0.000790244  0  
               -0.000194929  -0.00077485  0  
               -0.000269739  -0.000751992  0  
               -0.000341941  -0.000721893  0  
               -0.000410835  -0.000684843  0  
               -0.000475754  -0.000641202  0  
               -0.000536069  -0.000591391  0  
               0.000774734  -0.000193183  0  
               0.000755388  -0.000258717  0  
               0.000730494  -0.000322351  0  
               0.000700236  -0.000383617  0  
               0.000664838  -0.000442064  0  
               0.000624558  -0.00049726  0  
               0.000579695  -0.000548799  0  
               0.000530578  -0.000596303  0  
               0.000530559  0.000596286  0  
               0.000579641  0.000548755  0  
               0.000624478  0.000497201  0  
               0.000664741  0.000442002  0  
               0.000700137  0.000383561  0  
               0.000730405  0.000322307  0  
               0.000755323  0.000258689  0  
               0.00077471  0.000193173  0  
               -0.000536069  0.000591391  0  
               -0.000475754  0.000641202  0  
               -0.000410835  0.000684843  0  
               -0.000341941  0.000721893  0  
               -0.000269739  0.000751992  0  
               -0.000194929  0.00077485  0  
               -0.000118234  0.000790244  0  
               -4.03976e-05  0.000798026  0  
               3.78268e-05  0.00079812  0  
               0.000115682  0.000790525  0  
               0.000192413  0.000775316  0  
               0.000267278  0.000752639  0  
               0.000339552  0.000722713  0  
               0.000408535  0.000685829  0  
               0.000473559  0.000642344  0  
               -0.000593089  -0.000533975  0  
               -0.000645857  -0.000469149  0  
               -0.000691532  -0.000399145  0  
               -0.000729611  -0.000324735  0  
               -0.000759672  -0.00024674  0  
               -0.000781385  -0.000166022  0  
               -0.000794509  -8.34719e-05  0  
               -0.0007989  0  0  
               -0.000794509  8.34719e-05  0  
               -0.000781385  0.000166022  0  
               -0.000759672  0.00024674  0  
               -0.000729611  0.000324735  0  
               -0.000691532  0.000399145  0  
               -0.000645857  0.000469149  0  
               -0.000593089  0.000533975  0  
               0.0007915  -8e-05  0  
               0.0007915  8e-05  0  
            </DataArray>
         </Points> 

         <Cells>
            <DataArray type="Int32" Name="connectivity" NumberOfComponents="1" format="ascii">
               
            </DataArray> 
            <DataArray type="Int32" Name="offsets" NumberOfComponents="1" format="ascii">
               
            </DataArray>
            <DataArray type="UInt8"  Name="types" NumberOfComponents="1" format="ascii">
               
            </DataArray>
         </Cells>
         <PointData Scalars="Rank " Vectors="Displacement-Cylinder Force ">
            <DataArray type="UInt32" Name="Rank" NumberOfComponents="1" format="ascii">
               0 0 0 0 0 0 0 0 0 0 0 0 0 0 0 0 0 0 0 0 0 0 0 0 0 0 0 0 0 0 0 0 0 0 0 0 0 0 0 0 0 0 0 0 0 0 0 0 0 0 0 0 0 0 0 0 0 0 0 0 0 0 0 
            </DataArray>
            <DataArray type="Float64" Name="Displacement-Cylinder" NumberOfComponents="3" format="ascii">
               0 2.34656e-07 0.0  0 2.34656e-07 0.0  0 2.34656e-07 0.0  0 2.34656e-07 0.0  0 2.34656e-07 0.0  0 2.34656e-07 0.0  0 2.34656e-07 0.0  0 2.34656e-07 0.0  0 2.34656e-07 0.0  0 2.34656e-07 0.0  0 2.34656e-07 0.0  0 2.34656e-07 0.0  0 2.34656e-07 0.0  0 2.34656e-07 0.0  0 2.34656e-07 0.0  0 2.34656e-07 0.0  0 2.34656e-07 0.0  0 2.34656e-07 0.0  0 2.34656e-07 0.0  0 2.34656e-07 0.0  0 2.34656e-07 0.0  0 2.34656e-07 0.0  0 2.34656e-07 0.0  0 2.34656e-07 0.0  0 2.34656e-07 0.0  0 2.34656e-07 0.0  0 2.34656e-07 0.0  0 2.34656e-07 0.0  0 2.34656e-07 0.0  0 2.34656e-07 0.0  0 2.34656e-07 0.0  0 2.34656e-07 0.0  0 2.34656e-07 0.0  0 2.34656e-07 0.0  0 2.34656e-07 0.0  0 2.34656e-07 0.0  0 2.34656e-07 0.0  0 2.34656e-07 0.0  0 2.34656e-07 0.0  0 2.34656e-07 0.0  0 2.34656e-07 0.0  0 2.34656e-07 0.0  0 2.34656e-07 0.0  0 2.34656e-07 0.0  0 2.34656e-07 0.0  0 2.34656e-07 0.0  0 2.34656e-07 0.0  0 2.34656e-07 0.0  0 2.34656e-07 0.0  0 2.34656e-07 0.0  0 2.34656e-07 0.0  0 2.34656e-07 0.0  0 2.34656e-07 0.0  0 2.34656e-07 0.0  0 2.34656e-07 0.0  0 2.34656e-07 0.0  0 2.34656e-07 0.0  0 2.34656e-07 0.0  0 2.34656e-07 0.0  0 2.34656e-07 0.0  0 2.34656e-07 0.0  0 2.34656e-07 0.0  0 2.34656e-07 0.0  
            </DataArray>
            <DataArray type="Float64" Name="Force" NumberOfComponents="3" format="ascii">
               0.000149148 -1.80929e-05 0.0  0.000149828 1.92106e-05 0.0  4.27393e-05 -9.32275e-05 0.0  3.89786e-05 -0.000103746 0.0  3.51213e-05 -0.000114835 0.0  3.09246e-05 -0.000126702 0.0  2.58851e-05 -0.000138161 0.0  2.03293e-05 -0.000147661 0.0  1.42268e-05 -0.000153302 0.0  8.29199e-06 -0.000153249 0.0  4.09783e-06 -0.000146393 0.0  3.52125e-06 -0.00013227 0.0  8.08233e-06 -0.000111616 0.0  1.86372e-05 -8.66508e-05 0.0  3.5302e-05 -6.00824e-05 0.0  6.25772e-05 -1.80645e-05 0.0  6.16371e-05 -2.42318e-05 0.0  6.03153e-05 -3.02654e-05 0.0  5.85208e-05 -3.61131e-05 0.0  5.62648e-05 -4.18166e-05 0.0  5.36063e-05 -4.74367e-05 0.0  5.06279e-05 -5.30593e-05 0.0  4.74905e-05 -5.8785e-05 0.0  4.82957e-05 5.96756e-05 0.0  5.15069e-05 5.39214e-05 0.0  5.45408e-05 4.82777e-05 0.0  5.72192e-05 4.26272e-05 0.0  5.94498e-05 3.68787e-05 0.0  6.11751e-05 3.09752e-05 0.0  6.23852e-05 2.48785e-05 0.0  6.31749e-05 1.86643e-05 0.0  3.40916e-05 6.17904e-05 0.0  1.7497e-05 8.85417e-05 0.0  7.05686e-06 0.000113635 0.0  2.64005e-06 0.000134344 0.0  3.38003e-06 0.000148439 0.0  7.73796e-06 0.000155193 0.0  1.38171e-05 0.0001551 0.0  2.00594e-05 0.000149287 0.0  2.57492e-05 0.000139639 0.0  3.09085e-05 0.000128082 0.0  3.52531e-05 0.000116148 0.0  3.92414e-05 0.000105009 0.0  4.31638e-05 9.44007e-05 0.0  4.72253e-05 8.46555e-05 0.0  5.1432e-05 7.56177e-05 0.0  6.39506e-05 -3.58778e-05 0.0  9.2821e-05 -1.20379e-05 0.0  0.000128394 6.67576e-06 0.0  0.000163188 1.8498e-05 0.0  0.000195443 2.25714e-05 0.0  0.000221105 1.9503e-05 0.0  0.00023766 1.10738e-05 0.0  0.000243278 1.91694e-07 0.0  0.000237366 -1.06627e-05 0.0  0.000220532 -1.9005e-05 0.0  0.00019462 -2.19218e-05 0.0  0.000162156 -1.76494e-05 0.0  0.00012721 -5.59552e-06 0.0  9.15375e-05 1.33696e-05 0.0  6.26562e-05 3.74583e-05 0.0  0 2.34655e-07 0.0  0 2.34655e-07 0.0  
            </DataArray>
         </PointData> 
      </Piece>
   </UnstructuredGrid> 
</VTKFile>
