<?xml version="1.0"?>
<VTKFile type="UnstructuredGrid" version="0.1" byte_order="LittleEndian">
   <UnstructuredGrid>
      <Piece NumberOfPoints="63" NumberOfCells="0" > 
         <Points> 
            <DataArray type="Float64" Name="Position" NumberOfComponents="3" format="ascii"> 
               0.000473559  -0.000642344  0  
               0.000408535  -0.000685829  0  
               0.000339552  -0.000722713  0  
               0.000267278  -0.000752639  0  
               0.000192413  -0.000775316  0  
               0.000115682  -0.000790525  0  
               3.78268e-05  -0.00079812  0  
               -4.03976e-05  -0.000798026  0  
               -0.000118234  -0.000790244  0  
               -0.000194929  -0.00077485  0  
               -0.000269739  -0.000751992  0  
               -0.000341941  -0.000721893  0  
               -0.000410835  -0.000684843  0  
               -0.000475754  -0.000641202  0  
               -0.000536069  -0.000591391  0  
               0.000774734  -0.000193183  0  
               0.000755388  -0.000258717  0  
               0.000730494  -0.000322351  0  
               0.000700236  -0.000383617  0  
               0.000664838  -0.000442064  0  
               0.000624558  -0.00049726  0  
               0.000579695  -0.000548799  0  
               0.000530578  -0.000596303  0  
               0.000530559  0.000596286  0  
               0.000579641  0.000548755  0  
               0.000624478  0.000497201  0  
               0.000664741  0.000442002  0  
               0.000700137  0.000383561  0  
               0.000730405  0.000322307  0  
               0.000755323  0.000258689  0  
               0.00077471  0.000193173  0  
               -0.000536069  0.000591391  0  
               -0.000475754  0.000641202  0  
               -0.000410835  0.000684843  0  
               -0.000341941  0.000721893  0  
               -0.000269739  0.000751992  0  
               -0.000194929  0.00077485  0  
               -0.000118234  0.000790244  0  
               -4.03976e-05  0.000798026  0  
               3.78268e-05  0.00079812  0  
               0.000115682  0.000790525  0  
               0.000192413  0.000775316  0  
               0.000267278  0.000752639  0  
               0.000339552  0.000722713  0  
               0.000408535  0.000685829  0  
               0.000473559  0.000642344  0  
               -0.000593089  -0.000533975  0  
               -0.000645857  -0.000469149  0  
               -0.000691532  -0.000399145  0  
               -0.000729611  -0.000324735  0  
               -0.000759672  -0.00024674  0  
               -0.000781385  -0.000166022  0  
               -0.000794509  -8.34719e-05  0  
               -0.0007989  0  0  
               -0.000794509  8.34719e-05  0  
               -0.000781385  0.000166022  0  
               -0.000759672  0.00024674  0  
               -0.000729611  0.000324735  0  
               -0.000691532  0.000399145  0  
               -0.000645857  0.000469149  0  
               -0.000593089  0.000533975  0  
               0.0007915  -8e-05  0  
               0.0007915  8e-05  0  
            </DataArray>
         </Points> 

         <Cells>
            <DataArray type="Int32" Name="connectivity" NumberOfComponents="1" format="ascii">
               
            </DataArray> 
            <DataArray type="Int32" Name="offsets" NumberOfComponents="1" format="ascii">
               
            </DataArray>
            <DataArray type="UInt8"  Name="types" NumberOfComponents="1" format="ascii">
               
            </DataArray>
         </Cells>
         <PointData Scalars="Rank " Vectors="Displacement-Cylinder Force ">
            <DataArray type="UInt32" Name="Rank" NumberOfComponents="1" format="ascii">
               0 0 0 0 0 0 0 0 0 0 0 0 0 0 0 0 0 0 0 0 0 0 0 0 0 0 0 0 0 0 0 0 0 0 0 0 0 0 0 0 0 0 0 0 0 0 0 0 0 0 0 0 0 0 0 0 0 0 0 0 0 0 0 
            </DataArray>
            <DataArray type="Float64" Name="Displacement-Cylinder" NumberOfComponents="3" format="ascii">
               0 1.03615e-06 0.0  0 1.03615e-06 0.0  0 1.03615e-06 0.0  0 1.03615e-06 0.0  0 1.03615e-06 0.0  0 1.03615e-06 0.0  0 1.03615e-06 0.0  0 1.03615e-06 0.0  0 1.03615e-06 0.0  0 1.03615e-06 0.0  0 1.03615e-06 0.0  0 1.03615e-06 0.0  0 1.03615e-06 0.0  0 1.03615e-06 0.0  0 1.03615e-06 0.0  0 1.03615e-06 0.0  0 1.03615e-06 0.0  0 1.03615e-06 0.0  0 1.03615e-06 0.0  0 1.03615e-06 0.0  0 1.03615e-06 0.0  0 1.03615e-06 0.0  0 1.03615e-06 0.0  0 1.03615e-06 0.0  0 1.03615e-06 0.0  0 1.03615e-06 0.0  0 1.03615e-06 0.0  0 1.03615e-06 0.0  0 1.03615e-06 0.0  0 1.03615e-06 0.0  0 1.03615e-06 0.0  0 1.03615e-06 0.0  0 1.03615e-06 0.0  0 1.03615e-06 0.0  0 1.03615e-06 0.0  0 1.03615e-06 0.0  0 1.03615e-06 0.0  0 1.03615e-06 0.0  0 1.03615e-06 0.0  0 1.03615e-06 0.0  0 1.03615e-06 0.0  0 1.03615e-06 0.0  0 1.03615e-06 0.0  0 1.03615e-06 0.0  0 1.03615e-06 0.0  0 1.03615e-06 0.0  0 1.03615e-06 0.0  0 1.03615e-06 0.0  0 1.03615e-06 0.0  0 1.03615e-06 0.0  0 1.03615e-06 0.0  0 1.03615e-06 0.0  0 1.03615e-06 0.0  0 1.03615e-06 0.0  0 1.03615e-06 0.0  0 1.03615e-06 0.0  0 1.03615e-06 0.0  0 1.03615e-06 0.0  0 1.03615e-06 0.0  0 1.03615e-06 0.0  0 1.03615e-06 0.0  0 1.03615e-06 0.0  0 1.03615e-06 0.0  
            </DataArray>
            <DataArray type="Float64" Name="Force" NumberOfComponents="3" format="ascii">
               0.000237877 -4.39881e-05 0.0  0.000228762 9.8997e-06 0.0  6.13182e-05 -0.000132406 0.0  5.51598e-05 -0.000146296 0.0  4.85791e-05 -0.00016069 0.0  4.11734e-05 -0.000175663 0.0  3.23696e-05 -0.000189487 0.0  2.27833e-05 -0.000200186 0.0  1.24171e-05 -0.000205613 0.0  2.23778e-06 -0.000203925 0.0  -5.69786e-06 -0.000193993 0.0  -9.26863e-06 -0.000175614 0.0  -6.79501e-06 -0.000149867 0.0  2.65575e-06 -0.000119306 0.0  1.89315e-05 -8.73035e-05 0.0  9.99565e-05 -3.24613e-05 0.0  9.76298e-05 -4.00592e-05 0.0  9.4392e-05 -4.74209e-05 0.0  9.01867e-05 -5.44145e-05 0.0  8.52443e-05 -6.13145e-05 0.0  7.98806e-05 -6.83705e-05 0.0  7.44185e-05 -7.58238e-05 0.0  6.91363e-05 -8.37277e-05 0.0  7.46083e-05 8.87488e-05 0.0  7.91334e-05 8.00241e-05 0.0  8.30073e-05 7.10053e-05 0.0  8.6127e-05 6.14768e-05 0.0  8.86546e-05 5.14711e-05 0.0  9.06395e-05 4.12232e-05 0.0  9.25817e-05 3.09042e-05 0.0  9.43774e-05 2.05715e-05 0.0  2.69986e-05 7.38776e-05 0.0  9.87788e-06 0.000104853 0.0  -6.96414e-07 0.000134783 0.0  -4.48783e-06 0.000160458 0.0  -2.32492e-06 0.000179445 0.0  4.28098e-06 0.000190683 0.0  1.34245e-05 0.000194281 0.0  2.31192e-05 0.00019136 0.0  3.25001e-05 0.000183383 0.0  4.17101e-05 0.000172166 0.0  4.99112e-05 0.000159563 0.0  5.75194e-05 0.00014706 0.0  6.49696e-05 0.000135045 0.0  7.23358e-05 0.000123392 0.0  7.93645e-05 0.000111734 0.0  4.71976e-05 -5.95542e-05 0.0  7.7098e-05 -3.06502e-05 0.0  0.000114626 -7.4451e-06 0.0  0.000151705 8.1548e-06 0.0  0.000186413 1.52471e-05 0.0  0.000214412 1.44501e-05 0.0  0.000232992 7.60722e-06 0.0  0.000240161 -2.1269e-06 0.0  0.000235237 -1.20682e-05 0.0  0.00021879 -1.95752e-05 0.0  0.000192643 -2.15436e-05 0.0  0.000159441 -1.5957e-05 0.0  0.00012332 -2.03745e-06 0.0  8.63124e-05 1.943e-05 0.0  5.60956e-05 4.67565e-05 0.0  0 1.03615e-06 0.0  0 1.03615e-06 0.0  
            </DataArray>
         </PointData> 
      </Piece>
   </UnstructuredGrid> 
</VTKFile>
