<?xml version="1.0"?>
<VTKFile type="UnstructuredGrid" version="0.1" byte_order="LittleEndian">
   <UnstructuredGrid>
      <Piece NumberOfPoints="63" NumberOfCells="0" > 
         <Points> 
            <DataArray type="Float64" Name="Position" NumberOfComponents="3" format="ascii"> 
               0.000473559  -0.000642344  0  
               0.000408535  -0.000685829  0  
               0.000339552  -0.000722713  0  
               0.000267278  -0.000752639  0  
               0.000192413  -0.000775316  0  
               0.000115682  -0.000790525  0  
               3.78268e-05  -0.00079812  0  
               -4.03976e-05  -0.000798026  0  
               -0.000118234  -0.000790244  0  
               -0.000194929  -0.00077485  0  
               -0.000269739  -0.000751992  0  
               -0.000341941  -0.000721893  0  
               -0.000410835  -0.000684843  0  
               -0.000475754  -0.000641202  0  
               -0.000536069  -0.000591391  0  
               0.000774734  -0.000193183  0  
               0.000755388  -0.000258717  0  
               0.000730494  -0.000322351  0  
               0.000700236  -0.000383617  0  
               0.000664838  -0.000442064  0  
               0.000624558  -0.00049726  0  
               0.000579695  -0.000548799  0  
               0.000530578  -0.000596303  0  
               0.000530559  0.000596286  0  
               0.000579641  0.000548755  0  
               0.000624478  0.000497201  0  
               0.000664741  0.000442002  0  
               0.000700137  0.000383561  0  
               0.000730405  0.000322307  0  
               0.000755323  0.000258689  0  
               0.00077471  0.000193173  0  
               -0.000536069  0.000591391  0  
               -0.000475754  0.000641202  0  
               -0.000410835  0.000684843  0  
               -0.000341941  0.000721893  0  
               -0.000269739  0.000751992  0  
               -0.000194929  0.00077485  0  
               -0.000118234  0.000790244  0  
               -4.03976e-05  0.000798026  0  
               3.78268e-05  0.00079812  0  
               0.000115682  0.000790525  0  
               0.000192413  0.000775316  0  
               0.000267278  0.000752639  0  
               0.000339552  0.000722713  0  
               0.000408535  0.000685829  0  
               0.000473559  0.000642344  0  
               -0.000593089  -0.000533975  0  
               -0.000645857  -0.000469149  0  
               -0.000691532  -0.000399145  0  
               -0.000729611  -0.000324735  0  
               -0.000759672  -0.00024674  0  
               -0.000781385  -0.000166022  0  
               -0.000794509  -8.34719e-05  0  
               -0.0007989  0  0  
               -0.000794509  8.34719e-05  0  
               -0.000781385  0.000166022  0  
               -0.000759672  0.00024674  0  
               -0.000729611  0.000324735  0  
               -0.000691532  0.000399145  0  
               -0.000645857  0.000469149  0  
               -0.000593089  0.000533975  0  
               0.0007915  -8e-05  0  
               0.0007915  8e-05  0  
            </DataArray>
         </Points> 

         <Cells>
            <DataArray type="Int32" Name="connectivity" NumberOfComponents="1" format="ascii">
               
            </DataArray> 
            <DataArray type="Int32" Name="offsets" NumberOfComponents="1" format="ascii">
               
            </DataArray>
            <DataArray type="UInt8"  Name="types" NumberOfComponents="1" format="ascii">
               
            </DataArray>
         </Cells>
         <PointData Scalars="Rank " Vectors="Displacement-Cylinder Force ">
            <DataArray type="UInt32" Name="Rank" NumberOfComponents="1" format="ascii">
               0 0 0 0 0 0 0 0 0 0 0 0 0 0 0 0 0 0 0 0 0 0 0 0 0 0 0 0 0 0 0 0 0 0 0 0 0 0 0 0 0 0 0 0 0 0 0 0 0 0 0 0 0 0 0 0 0 0 0 0 0 0 0 
            </DataArray>
            <DataArray type="Float64" Name="Displacement-Cylinder" NumberOfComponents="3" format="ascii">
               0 1.22367e-07 0.0  0 1.22367e-07 0.0  0 1.22367e-07 0.0  0 1.22367e-07 0.0  0 1.22367e-07 0.0  0 1.22367e-07 0.0  0 1.22367e-07 0.0  0 1.22367e-07 0.0  0 1.22367e-07 0.0  0 1.22367e-07 0.0  0 1.22367e-07 0.0  0 1.22367e-07 0.0  0 1.22367e-07 0.0  0 1.22367e-07 0.0  0 1.22367e-07 0.0  0 1.22367e-07 0.0  0 1.22367e-07 0.0  0 1.22367e-07 0.0  0 1.22367e-07 0.0  0 1.22367e-07 0.0  0 1.22367e-07 0.0  0 1.22367e-07 0.0  0 1.22367e-07 0.0  0 1.22367e-07 0.0  0 1.22367e-07 0.0  0 1.22367e-07 0.0  0 1.22367e-07 0.0  0 1.22367e-07 0.0  0 1.22367e-07 0.0  0 1.22367e-07 0.0  0 1.22367e-07 0.0  0 1.22367e-07 0.0  0 1.22367e-07 0.0  0 1.22367e-07 0.0  0 1.22367e-07 0.0  0 1.22367e-07 0.0  0 1.22367e-07 0.0  0 1.22367e-07 0.0  0 1.22367e-07 0.0  0 1.22367e-07 0.0  0 1.22367e-07 0.0  0 1.22367e-07 0.0  0 1.22367e-07 0.0  0 1.22367e-07 0.0  0 1.22367e-07 0.0  0 1.22367e-07 0.0  0 1.22367e-07 0.0  0 1.22367e-07 0.0  0 1.22367e-07 0.0  0 1.22367e-07 0.0  0 1.22367e-07 0.0  0 1.22367e-07 0.0  0 1.22367e-07 0.0  0 1.22367e-07 0.0  0 1.22367e-07 0.0  0 1.22367e-07 0.0  0 1.22367e-07 0.0  0 1.22367e-07 0.0  0 1.22367e-07 0.0  0 1.22367e-07 0.0  0 1.22367e-07 0.0  0 1.22367e-07 0.0  0 1.22367e-07 0.0  
            </DataArray>
            <DataArray type="Float64" Name="Force" NumberOfComponents="3" format="ascii">
               0.000166681 -2.5048e-05 0.0  0.000167168 2.56368e-05 0.0  5.14159e-05 -0.000110748 0.0  4.69671e-05 -0.000122957 0.0  4.2249e-05 -0.000135862 0.0  3.69259e-05 -0.000149518 0.0  3.04012e-05 -0.000162249 0.0  2.3278e-05 -0.000172187 0.0  1.54939e-05 -0.000177278 0.0  7.9392e-06 -0.000175744 0.0  2.5698e-06 -0.000166459 0.0  1.40503e-06 -0.000149217 0.0  6.04776e-06 -0.000125044 0.0  1.73787e-05 -9.64021e-05 0.0  3.52254e-05 -6.65467e-05 0.0  7.26865e-05 -2.44964e-05 0.0  7.31337e-05 -3.20417e-05 0.0  7.27585e-05 -3.90226e-05 0.0  7.12074e-05 -4.53339e-05 0.0  6.85381e-05 -5.12233e-05 0.0  6.499e-05 -5.70148e-05 0.0  6.09896e-05 -6.30769e-05 0.0  5.69083e-05 -6.95332e-05 0.0  5.74554e-05 7.00742e-05 0.0  6.15788e-05 6.36006e-05 0.0  6.56056e-05 5.75175e-05 0.0  6.91624e-05 5.16987e-05 0.0  7.18203e-05 4.57777e-05 0.0  7.33388e-05 3.94344e-05 0.0  7.36536e-05 3.24211e-05 0.0  7.31122e-05 2.48555e-05 0.0  3.46126e-05 6.74361e-05 0.0  1.67805e-05 9.74377e-05 0.0  5.48921e-06 0.000126202 0.0  9.09083e-07 0.000150455 0.0  2.15489e-06 0.000167717 0.0  7.61101e-06 0.000176966 0.0  1.52435e-05 0.000178418 0.0  2.31043e-05 0.000173217 0.0  3.03067e-05 0.00016318 0.0  3.68959e-05 0.000150384 0.0  4.23047e-05 0.000136694 0.0  4.71275e-05 0.000123754 0.0  5.16882e-05 0.000111492 0.0  5.61854e-05 9.98327e-05 0.0  6.10519e-05 8.88084e-05 0.0  6.57303e-05 -3.9891e-05 0.0  9.67675e-05 -1.36522e-05 0.0  0.000134803 6.79523e-06 0.0  0.000171989 1.96534e-05 0.0  0.00020638 2.4094e-05 0.0  0.000233735 2.0822e-05 0.0  0.00025139 1.17711e-05 0.0  0.000257442 6.93682e-08 0.0  0.000251266 -1.16197e-05 0.0  0.000233491 -2.063e-05 0.0  0.000206024 -2.38304e-05 0.0  0.000171533 -1.92913e-05 0.0  0.000134264 -6.30987e-06 0.0  9.61639e-05 1.42824e-05 0.0  6.50949e-05 4.06795e-05 0.0  0 1.22366e-07 0.0  0 1.22366e-07 0.0  
            </DataArray>
         </PointData> 
      </Piece>
   </UnstructuredGrid> 
</VTKFile>
