<?xml version="1.0"?>
<VTKFile type="UnstructuredGrid" version="0.1" byte_order="LittleEndian">
   <UnstructuredGrid>
      <Piece NumberOfPoints="63" NumberOfCells="0" > 
         <Points> 
            <DataArray type="Float64" Name="Position" NumberOfComponents="3" format="ascii"> 
               0.000473559  -0.000642344  0  
               0.000408535  -0.000685829  0  
               0.000339552  -0.000722713  0  
               0.000267278  -0.000752639  0  
               0.000192413  -0.000775316  0  
               0.000115682  -0.000790525  0  
               3.78268e-05  -0.00079812  0  
               -4.03976e-05  -0.000798026  0  
               -0.000118234  -0.000790244  0  
               -0.000194929  -0.00077485  0  
               -0.000269739  -0.000751992  0  
               -0.000341941  -0.000721893  0  
               -0.000410835  -0.000684843  0  
               -0.000475754  -0.000641202  0  
               -0.000536069  -0.000591391  0  
               0.000774734  -0.000193183  0  
               0.000755388  -0.000258717  0  
               0.000730494  -0.000322351  0  
               0.000700236  -0.000383617  0  
               0.000664838  -0.000442064  0  
               0.000624558  -0.00049726  0  
               0.000579695  -0.000548799  0  
               0.000530578  -0.000596303  0  
               0.000530559  0.000596286  0  
               0.000579641  0.000548755  0  
               0.000624478  0.000497201  0  
               0.000664741  0.000442002  0  
               0.000700137  0.000383561  0  
               0.000730405  0.000322307  0  
               0.000755323  0.000258689  0  
               0.00077471  0.000193173  0  
               -0.000536069  0.000591391  0  
               -0.000475754  0.000641202  0  
               -0.000410835  0.000684843  0  
               -0.000341941  0.000721893  0  
               -0.000269739  0.000751992  0  
               -0.000194929  0.00077485  0  
               -0.000118234  0.000790244  0  
               -4.03976e-05  0.000798026  0  
               3.78268e-05  0.00079812  0  
               0.000115682  0.000790525  0  
               0.000192413  0.000775316  0  
               0.000267278  0.000752639  0  
               0.000339552  0.000722713  0  
               0.000408535  0.000685829  0  
               0.000473559  0.000642344  0  
               -0.000593089  -0.000533975  0  
               -0.000645857  -0.000469149  0  
               -0.000691532  -0.000399145  0  
               -0.000729611  -0.000324735  0  
               -0.000759672  -0.00024674  0  
               -0.000781385  -0.000166022  0  
               -0.000794509  -8.34719e-05  0  
               -0.0007989  0  0  
               -0.000794509  8.34719e-05  0  
               -0.000781385  0.000166022  0  
               -0.000759672  0.00024674  0  
               -0.000729611  0.000324735  0  
               -0.000691532  0.000399145  0  
               -0.000645857  0.000469149  0  
               -0.000593089  0.000533975  0  
               0.0007915  -8e-05  0  
               0.0007915  8e-05  0  
            </DataArray>
         </Points> 

         <Cells>
            <DataArray type="Int32" Name="connectivity" NumberOfComponents="1" format="ascii">
               
            </DataArray> 
            <DataArray type="Int32" Name="offsets" NumberOfComponents="1" format="ascii">
               
            </DataArray>
            <DataArray type="UInt8"  Name="types" NumberOfComponents="1" format="ascii">
               
            </DataArray>
         </Cells>
         <PointData Scalars="Rank " Vectors="Displacement-Cylinder Force ">
            <DataArray type="UInt32" Name="Rank" NumberOfComponents="1" format="ascii">
               0 0 0 0 0 0 0 0 0 0 0 0 0 0 0 0 0 0 0 0 0 0 0 0 0 0 0 0 0 0 0 0 0 0 0 0 0 0 0 0 0 0 0 0 0 0 0 0 0 0 0 0 0 0 0 0 0 0 0 0 0 0 0 
            </DataArray>
            <DataArray type="Float64" Name="Displacement-Cylinder" NumberOfComponents="3" format="ascii">
               0 5.83685e-07 0.0  0 5.83685e-07 0.0  0 5.83685e-07 0.0  0 5.83685e-07 0.0  0 5.83685e-07 0.0  0 5.83685e-07 0.0  0 5.83685e-07 0.0  0 5.83685e-07 0.0  0 5.83685e-07 0.0  0 5.83685e-07 0.0  0 5.83685e-07 0.0  0 5.83685e-07 0.0  0 5.83685e-07 0.0  0 5.83685e-07 0.0  0 5.83685e-07 0.0  0 5.83685e-07 0.0  0 5.83685e-07 0.0  0 5.83685e-07 0.0  0 5.83685e-07 0.0  0 5.83685e-07 0.0  0 5.83685e-07 0.0  0 5.83685e-07 0.0  0 5.83685e-07 0.0  0 5.83685e-07 0.0  0 5.83685e-07 0.0  0 5.83685e-07 0.0  0 5.83685e-07 0.0  0 5.83685e-07 0.0  0 5.83685e-07 0.0  0 5.83685e-07 0.0  0 5.83685e-07 0.0  0 5.83685e-07 0.0  0 5.83685e-07 0.0  0 5.83685e-07 0.0  0 5.83685e-07 0.0  0 5.83685e-07 0.0  0 5.83685e-07 0.0  0 5.83685e-07 0.0  0 5.83685e-07 0.0  0 5.83685e-07 0.0  0 5.83685e-07 0.0  0 5.83685e-07 0.0  0 5.83685e-07 0.0  0 5.83685e-07 0.0  0 5.83685e-07 0.0  0 5.83685e-07 0.0  0 5.83685e-07 0.0  0 5.83685e-07 0.0  0 5.83685e-07 0.0  0 5.83685e-07 0.0  0 5.83685e-07 0.0  0 5.83685e-07 0.0  0 5.83685e-07 0.0  0 5.83685e-07 0.0  0 5.83685e-07 0.0  0 5.83685e-07 0.0  0 5.83685e-07 0.0  0 5.83685e-07 0.0  0 5.83685e-07 0.0  0 5.83685e-07 0.0  0 5.83685e-07 0.0  0 5.83685e-07 0.0  0 5.83685e-07 0.0  
            </DataArray>
            <DataArray type="Float64" Name="Force" NumberOfComponents="3" format="ascii">
               0.000208736 -3.53823e-05 0.0  0.000200701 1.28802e-05 0.0  5.66958e-05 -0.000122358 0.0  5.08062e-05 -0.000134903 0.0  4.46112e-05 -0.000147937 0.0  3.78318e-05 -0.000161562 0.0  2.99165e-05 -0.000174272 0.0  2.13657e-05 -0.000184303 0.0  1.21748e-05 -0.000189635 0.0  3.19521e-06 -0.00018843 0.0  -3.73077e-06 -0.000179573 0.0  -6.58872e-06 -0.000162755 0.0  -3.76468e-06 -0.000138895 0.0  5.63813e-06 -0.000110411 0.0  2.16071e-05 -8.03656e-05 0.0  8.86269e-05 -2.82596e-05 0.0  8.74013e-05 -3.59306e-05 0.0  8.53538e-05 -4.33974e-05 0.0  8.23774e-05 -5.05091e-05 0.0  7.86123e-05 -5.74074e-05 0.0  7.42614e-05 -6.42443e-05 0.0  6.95452e-05 -7.12061e-05 0.0  6.47076e-05 -7.83758e-05 0.0  6.21243e-05 7.49303e-05 0.0  6.60822e-05 6.75246e-05 0.0  6.9682e-05 5.99375e-05 0.0  7.28399e-05 5.21276e-05 0.0  7.56317e-05 4.41217e-05 0.0  7.81101e-05 3.59517e-05 0.0  8.03454e-05 2.76703e-05 0.0  8.23628e-05 1.92322e-05 0.0  2.83146e-05 6.94807e-05 0.0  1.18327e-05 9.82729e-05 0.0  1.66411e-06 0.000125664 0.0  -2.14982e-06 0.000148722 0.0  -4.55694e-07 0.000165138 0.0  5.2258e-06 0.000174036 0.0  1.30047e-05 0.000175727 0.0  2.11263e-05 0.000171335 0.0  2.88151e-05 0.00016254 0.0  3.61938e-05 0.000151205 0.0  4.2659e-05 0.000138913 0.0  4.87116e-05 0.000127245 0.0  5.45467e-05 0.000116132 0.0  6.04086e-05 0.000105293 0.0  6.61902e-05 9.47228e-05 0.0  4.93024e-05 -5.40087e-05 0.0  7.83351e-05 -2.67402e-05 0.0  0.000114679 -4.8777e-06 0.0  0.000150527 9.72323e-06 0.0  0.000184038 1.61692e-05 0.0  0.000211002 1.50531e-05 0.0  0.000228801 8.16294e-06 0.0  0.00023551 -1.46741e-06 0.0  0.00023048 -1.12578e-05 0.0  0.000214286 -1.866e-05 0.0  0.000188749 -2.0684e-05 0.0  0.000156433 -1.54323e-05 0.0  0.000121431 -2.21344e-06 0.0  8.56101e-05 1.81563e-05 0.0  5.65079e-05 4.39376e-05 0.0  0 5.83685e-07 0.0  0 5.83685e-07 0.0  
            </DataArray>
         </PointData> 
      </Piece>
   </UnstructuredGrid> 
</VTKFile>
