<?xml version="1.0"?>
<VTKFile type="UnstructuredGrid" version="0.1" byte_order="LittleEndian">
   <UnstructuredGrid>
      <Piece NumberOfPoints="63" NumberOfCells="0" > 
         <Points> 
            <DataArray type="Float64" Name="Position" NumberOfComponents="3" format="ascii"> 
               0.000473559  -0.000642344  0  
               0.000408535  -0.000685829  0  
               0.000339552  -0.000722713  0  
               0.000267278  -0.000752639  0  
               0.000192413  -0.000775316  0  
               0.000115682  -0.000790525  0  
               3.78268e-05  -0.00079812  0  
               -4.03976e-05  -0.000798026  0  
               -0.000118234  -0.000790244  0  
               -0.000194929  -0.00077485  0  
               -0.000269739  -0.000751992  0  
               -0.000341941  -0.000721893  0  
               -0.000410835  -0.000684843  0  
               -0.000475754  -0.000641202  0  
               -0.000536069  -0.000591391  0  
               0.000774734  -0.000193183  0  
               0.000755388  -0.000258717  0  
               0.000730494  -0.000322351  0  
               0.000700236  -0.000383617  0  
               0.000664838  -0.000442064  0  
               0.000624558  -0.00049726  0  
               0.000579695  -0.000548799  0  
               0.000530578  -0.000596303  0  
               0.000530559  0.000596286  0  
               0.000579641  0.000548755  0  
               0.000624478  0.000497201  0  
               0.000664741  0.000442002  0  
               0.000700137  0.000383561  0  
               0.000730405  0.000322307  0  
               0.000755323  0.000258689  0  
               0.00077471  0.000193173  0  
               -0.000536069  0.000591391  0  
               -0.000475754  0.000641202  0  
               -0.000410835  0.000684843  0  
               -0.000341941  0.000721893  0  
               -0.000269739  0.000751992  0  
               -0.000194929  0.00077485  0  
               -0.000118234  0.000790244  0  
               -4.03976e-05  0.000798026  0  
               3.78268e-05  0.00079812  0  
               0.000115682  0.000790525  0  
               0.000192413  0.000775316  0  
               0.000267278  0.000752639  0  
               0.000339552  0.000722713  0  
               0.000408535  0.000685829  0  
               0.000473559  0.000642344  0  
               -0.000593089  -0.000533975  0  
               -0.000645857  -0.000469149  0  
               -0.000691532  -0.000399145  0  
               -0.000729611  -0.000324735  0  
               -0.000759672  -0.00024674  0  
               -0.000781385  -0.000166022  0  
               -0.000794509  -8.34719e-05  0  
               -0.0007989  0  0  
               -0.000794509  8.34719e-05  0  
               -0.000781385  0.000166022  0  
               -0.000759672  0.00024674  0  
               -0.000729611  0.000324735  0  
               -0.000691532  0.000399145  0  
               -0.000645857  0.000469149  0  
               -0.000593089  0.000533975  0  
               0.0007915  -8e-05  0  
               0.0007915  8e-05  0  
            </DataArray>
         </Points> 

         <Cells>
            <DataArray type="Int32" Name="connectivity" NumberOfComponents="1" format="ascii">
               
            </DataArray> 
            <DataArray type="Int32" Name="offsets" NumberOfComponents="1" format="ascii">
               
            </DataArray>
            <DataArray type="UInt8"  Name="types" NumberOfComponents="1" format="ascii">
               
            </DataArray>
         </Cells>
         <PointData Scalars="Rank " Vectors="Displacement-Cylinder Force ">
            <DataArray type="UInt32" Name="Rank" NumberOfComponents="1" format="ascii">
               0 0 0 0 0 0 0 0 0 0 0 0 0 0 0 0 0 0 0 0 0 0 0 0 0 0 0 0 0 0 0 0 0 0 0 0 0 0 0 0 0 0 0 0 0 0 0 0 0 0 0 0 0 0 0 0 0 0 0 0 0 0 0 
            </DataArray>
            <DataArray type="Float64" Name="Displacement-Cylinder" NumberOfComponents="3" format="ascii">
               0 1.56212e-06 0.0  0 1.56212e-06 0.0  0 1.56212e-06 0.0  0 1.56212e-06 0.0  0 1.56212e-06 0.0  0 1.56212e-06 0.0  0 1.56212e-06 0.0  0 1.56212e-06 0.0  0 1.56212e-06 0.0  0 1.56212e-06 0.0  0 1.56212e-06 0.0  0 1.56212e-06 0.0  0 1.56212e-06 0.0  0 1.56212e-06 0.0  0 1.56212e-06 0.0  0 1.56212e-06 0.0  0 1.56212e-06 0.0  0 1.56212e-06 0.0  0 1.56212e-06 0.0  0 1.56212e-06 0.0  0 1.56212e-06 0.0  0 1.56212e-06 0.0  0 1.56212e-06 0.0  0 1.56212e-06 0.0  0 1.56212e-06 0.0  0 1.56212e-06 0.0  0 1.56212e-06 0.0  0 1.56212e-06 0.0  0 1.56212e-06 0.0  0 1.56212e-06 0.0  0 1.56212e-06 0.0  0 1.56212e-06 0.0  0 1.56212e-06 0.0  0 1.56212e-06 0.0  0 1.56212e-06 0.0  0 1.56212e-06 0.0  0 1.56212e-06 0.0  0 1.56212e-06 0.0  0 1.56212e-06 0.0  0 1.56212e-06 0.0  0 1.56212e-06 0.0  0 1.56212e-06 0.0  0 1.56212e-06 0.0  0 1.56212e-06 0.0  0 1.56212e-06 0.0  0 1.56212e-06 0.0  0 1.56212e-06 0.0  0 1.56212e-06 0.0  0 1.56212e-06 0.0  0 1.56212e-06 0.0  0 1.56212e-06 0.0  0 1.56212e-06 0.0  0 1.56212e-06 0.0  0 1.56212e-06 0.0  0 1.56212e-06 0.0  0 1.56212e-06 0.0  0 1.56212e-06 0.0  0 1.56212e-06 0.0  0 1.56212e-06 0.0  0 1.56212e-06 0.0  0 1.56212e-06 0.0  0 1.56212e-06 0.0  0 1.56212e-06 0.0  
            </DataArray>
            <DataArray type="Float64" Name="Force" NumberOfComponents="3" format="ascii">
               0.000222876 -6.29693e-06 0.0  0.000250782 5.03004e-05 0.0  4.9605e-05 -0.000106495 0.0  4.48412e-05 -0.000117527 0.0  3.99376e-05 -0.000129241 0.0  3.46511e-05 -0.000141716 0.0  2.84213e-05 -0.000153456 0.0  2.17413e-05 -0.000162805 0.0  1.45265e-05 -0.000167808 0.0  7.56055e-06 -0.000166684 0.0  2.60016e-06 -0.000158301 0.0  1.57396e-06 -0.00014234 0.0  6.0297e-06 -0.000119679 0.0  1.68196e-05 -9.26489e-05 0.0  3.38766e-05 -6.42426e-05 0.0  8.64809e-05 -1.66023e-05 0.0  8.15622e-05 -2.46058e-05 0.0  7.67685e-05 -3.19997e-05 0.0  7.21433e-05 -3.91525e-05 0.0  6.77175e-05 -4.62017e-05 0.0  6.34918e-05 -5.31934e-05 0.0  5.9393e-05 -6.01887e-05 0.0  5.54721e-05 -6.72103e-05 0.0  8.80338e-05 0.000104744 0.0  9.4254e-05 9.5298e-05 0.0  0.000100167 8.6293e-05 0.0  0.000105265 7.73298e-05 0.0  0.000109234 6.82518e-05 0.0  0.000111629 5.87721e-05 0.0  0.000112294 4.87823e-05 0.0  0.000111391 3.86221e-05 0.0  1.28634e-05 9.63859e-05 0.0  -3.66639e-06 0.000131114 0.0  -1.30229e-05 0.000164716 0.0  -1.4932e-05 0.000193691 0.0  -1.02896e-05 0.000215321 0.0  -7.36367e-07 0.00022833 0.0  1.16257e-05 0.000232659 0.0  2.44989e-05 0.000229391 0.0  3.68041e-05 0.000220056 0.0  4.86034e-05 0.000206683 0.0  5.88708e-05 0.000191351 0.0  6.80787e-05 0.000175993 0.0  7.67528e-05 0.00016106 0.0  8.51746e-05 0.000146347 0.0  9.33736e-05 0.000131804 0.0  6.30265e-05 -3.87891e-05 0.0  9.26419e-05 -1.35606e-05 0.0  0.000128888 6.19514e-06 0.0  0.000164119 1.87508e-05 0.0  0.000196426 2.33027e-05 0.0  0.000221648 2.05996e-05 0.0  0.000237181 1.26374e-05 0.0  0.000241174 2.48578e-06 0.0  0.000233051 -7.22137e-06 0.0  0.000213483 -1.37808e-05 0.0  0.000184447 -1.39904e-05 0.0  0.000148688 -5.97839e-06 0.0  0.000110545 1.09141e-05 0.0  7.2047e-05 3.58209e-05 0.0  4.13018e-05 6.68632e-05 0.0  0 1.56212e-06 0.0  0 1.56212e-06 0.0  
            </DataArray>
         </PointData> 
      </Piece>
   </UnstructuredGrid> 
</VTKFile>
