<?xml version="1.0"?>
<VTKFile type="UnstructuredGrid" version="0.1" byte_order="LittleEndian">
   <UnstructuredGrid>
      <Piece NumberOfPoints="63" NumberOfCells="0" > 
         <Points> 
            <DataArray type="Float64" Name="Position" NumberOfComponents="3" format="ascii"> 
               0.000473559  -0.000642344  0  
               0.000408535  -0.000685829  0  
               0.000339552  -0.000722713  0  
               0.000267278  -0.000752639  0  
               0.000192413  -0.000775316  0  
               0.000115682  -0.000790525  0  
               3.78268e-05  -0.00079812  0  
               -4.03976e-05  -0.000798026  0  
               -0.000118234  -0.000790244  0  
               -0.000194929  -0.00077485  0  
               -0.000269739  -0.000751992  0  
               -0.000341941  -0.000721893  0  
               -0.000410835  -0.000684843  0  
               -0.000475754  -0.000641202  0  
               -0.000536069  -0.000591391  0  
               0.000774734  -0.000193183  0  
               0.000755388  -0.000258717  0  
               0.000730494  -0.000322351  0  
               0.000700236  -0.000383617  0  
               0.000664838  -0.000442064  0  
               0.000624558  -0.00049726  0  
               0.000579695  -0.000548799  0  
               0.000530578  -0.000596303  0  
               0.000530559  0.000596286  0  
               0.000579641  0.000548755  0  
               0.000624478  0.000497201  0  
               0.000664741  0.000442002  0  
               0.000700137  0.000383561  0  
               0.000730405  0.000322307  0  
               0.000755323  0.000258689  0  
               0.00077471  0.000193173  0  
               -0.000536069  0.000591391  0  
               -0.000475754  0.000641202  0  
               -0.000410835  0.000684843  0  
               -0.000341941  0.000721893  0  
               -0.000269739  0.000751992  0  
               -0.000194929  0.00077485  0  
               -0.000118234  0.000790244  0  
               -4.03976e-05  0.000798026  0  
               3.78268e-05  0.00079812  0  
               0.000115682  0.000790525  0  
               0.000192413  0.000775316  0  
               0.000267278  0.000752639  0  
               0.000339552  0.000722713  0  
               0.000408535  0.000685829  0  
               0.000473559  0.000642344  0  
               -0.000593089  -0.000533975  0  
               -0.000645857  -0.000469149  0  
               -0.000691532  -0.000399145  0  
               -0.000729611  -0.000324735  0  
               -0.000759672  -0.00024674  0  
               -0.000781385  -0.000166022  0  
               -0.000794509  -8.34719e-05  0  
               -0.0007989  0  0  
               -0.000794509  8.34719e-05  0  
               -0.000781385  0.000166022  0  
               -0.000759672  0.00024674  0  
               -0.000729611  0.000324735  0  
               -0.000691532  0.000399145  0  
               -0.000645857  0.000469149  0  
               -0.000593089  0.000533975  0  
               0.0007915  -8e-05  0  
               0.0007915  8e-05  0  
            </DataArray>
         </Points> 

         <Cells>
            <DataArray type="Int32" Name="connectivity" NumberOfComponents="1" format="ascii">
               
            </DataArray> 
            <DataArray type="Int32" Name="offsets" NumberOfComponents="1" format="ascii">
               
            </DataArray>
            <DataArray type="UInt8"  Name="types" NumberOfComponents="1" format="ascii">
               
            </DataArray>
         </Cells>
         <PointData Scalars="Rank " Vectors="Displacement-Cylinder Force ">
            <DataArray type="UInt32" Name="Rank" NumberOfComponents="1" format="ascii">
               0 0 0 0 0 0 0 0 0 0 0 0 0 0 0 0 0 0 0 0 0 0 0 0 0 0 0 0 0 0 0 0 0 0 0 0 0 0 0 0 0 0 0 0 0 0 0 0 0 0 0 0 0 0 0 0 0 0 0 0 0 0 0 
            </DataArray>
            <DataArray type="Float64" Name="Displacement-Cylinder" NumberOfComponents="3" format="ascii">
               0 1.02539e-06 0.0  0 1.02539e-06 0.0  0 1.02539e-06 0.0  0 1.02539e-06 0.0  0 1.02539e-06 0.0  0 1.02539e-06 0.0  0 1.02539e-06 0.0  0 1.02539e-06 0.0  0 1.02539e-06 0.0  0 1.02539e-06 0.0  0 1.02539e-06 0.0  0 1.02539e-06 0.0  0 1.02539e-06 0.0  0 1.02539e-06 0.0  0 1.02539e-06 0.0  0 1.02539e-06 0.0  0 1.02539e-06 0.0  0 1.02539e-06 0.0  0 1.02539e-06 0.0  0 1.02539e-06 0.0  0 1.02539e-06 0.0  0 1.02539e-06 0.0  0 1.02539e-06 0.0  0 1.02539e-06 0.0  0 1.02539e-06 0.0  0 1.02539e-06 0.0  0 1.02539e-06 0.0  0 1.02539e-06 0.0  0 1.02539e-06 0.0  0 1.02539e-06 0.0  0 1.02539e-06 0.0  0 1.02539e-06 0.0  0 1.02539e-06 0.0  0 1.02539e-06 0.0  0 1.02539e-06 0.0  0 1.02539e-06 0.0  0 1.02539e-06 0.0  0 1.02539e-06 0.0  0 1.02539e-06 0.0  0 1.02539e-06 0.0  0 1.02539e-06 0.0  0 1.02539e-06 0.0  0 1.02539e-06 0.0  0 1.02539e-06 0.0  0 1.02539e-06 0.0  0 1.02539e-06 0.0  0 1.02539e-06 0.0  0 1.02539e-06 0.0  0 1.02539e-06 0.0  0 1.02539e-06 0.0  0 1.02539e-06 0.0  0 1.02539e-06 0.0  0 1.02539e-06 0.0  0 1.02539e-06 0.0  0 1.02539e-06 0.0  0 1.02539e-06 0.0  0 1.02539e-06 0.0  0 1.02539e-06 0.0  0 1.02539e-06 0.0  0 1.02539e-06 0.0  0 1.02539e-06 0.0  0 1.02539e-06 0.0  0 1.02539e-06 0.0  
            </DataArray>
            <DataArray type="Float64" Name="Force" NumberOfComponents="3" format="ascii">
               0.000216255 -1.55052e-05 0.0  0.00023885 4.03723e-05 0.0  4.88633e-05 -0.000106326 0.0  4.43546e-05 -0.00011803 0.0  3.96648e-05 -0.000130318 0.0  3.45262e-05 -0.000143351 0.0  2.83429e-05 -0.000155797 0.0  2.1523e-05 -0.000165889 0.0  1.40514e-05 -0.000171585 0.0  6.73984e-06 -0.000170986 0.0  1.34881e-06 -0.000162958 0.0  -1.30368e-07 -0.000147153 0.0  3.89915e-06 -0.000124448 0.0  1.43187e-05 -9.72099e-05 0.0  3.10897e-05 -6.84695e-05 0.0  8.51426e-05 -1.99358e-05 0.0  8.08494e-05 -2.72885e-05 0.0  7.64909e-05 -3.40992e-05 0.0  7.20314e-05 -4.0531e-05 0.0  6.74654e-05 -4.67984e-05 0.0  6.29254e-05 -5.31446e-05 0.0  5.85782e-05 -5.97415e-05 0.0  5.45589e-05 -6.66305e-05 0.0  8.9258e-05 0.00010582 0.0  9.52629e-05 9.63091e-05 0.0  0.000100682 8.7032e-05 0.0  0.000104949 7.75012e-05 0.0  0.0001078 6.75704e-05 0.0  0.000109 5.71088e-05 0.0  0.000108546 4.6169e-05 0.0  0.000106763 3.51367e-05 0.0  1.51162e-05 9.23791e-05 0.0  -1.55207e-06 0.000126628 0.0  -1.1178e-05 0.000159878 0.0  -1.34438e-05 0.000188645 0.0  -9.21775e-06 0.000210283 0.0  -8.93947e-08 0.000223533 0.0  1.19085e-05 0.000228327 0.0  2.45178e-05 0.000225746 0.0  3.67018e-05 0.000217204 0.0  4.85132e-05 0.00020464 0.0  5.89453e-05 0.000190087 0.0  6.84136e-05 0.000175356 0.0  7.74471e-05 0.000161008 0.0  8.61869e-05 0.000146881 0.0  9.46354e-05 0.000132848 0.0  5.99087e-05 -4.28272e-05 0.0  8.93767e-05 -1.70976e-05 0.0  0.000125716 3.20878e-06 0.0  0.00016117 1.6304e-05 0.0  0.000193859 2.13501e-05 0.0  0.000219577 1.90507e-05 0.0  0.0002357 1.13519e-05 0.0  0.000240339 1.33195e-06 0.0  0.000232886 -8.3691e-06 0.0  0.000213985 -1.50674e-05 0.0  0.000185565 -1.55807e-05 0.0  0.000150341 -7.99784e-06 0.0  0.000112602 8.37746e-06 0.0  7.43855e-05 3.27152e-05 0.0  4.36618e-05 6.31915e-05 0.0  0 1.02538e-06 0.0  0 1.02538e-06 0.0  
            </DataArray>
         </PointData> 
      </Piece>
   </UnstructuredGrid> 
</VTKFile>
