<?xml version="1.0"?>
<VTKFile type="UnstructuredGrid" version="0.1" byte_order="LittleEndian">
   <UnstructuredGrid>
      <Piece NumberOfPoints="63" NumberOfCells="0" > 
         <Points> 
            <DataArray type="Float64" Name="Position" NumberOfComponents="3" format="ascii"> 
               0.000473559  -0.000642344  0  
               0.000408535  -0.000685829  0  
               0.000339552  -0.000722713  0  
               0.000267278  -0.000752639  0  
               0.000192413  -0.000775316  0  
               0.000115682  -0.000790525  0  
               3.78268e-05  -0.00079812  0  
               -4.03976e-05  -0.000798026  0  
               -0.000118234  -0.000790244  0  
               -0.000194929  -0.00077485  0  
               -0.000269739  -0.000751992  0  
               -0.000341941  -0.000721893  0  
               -0.000410835  -0.000684843  0  
               -0.000475754  -0.000641202  0  
               -0.000536069  -0.000591391  0  
               0.000774734  -0.000193183  0  
               0.000755388  -0.000258717  0  
               0.000730494  -0.000322351  0  
               0.000700236  -0.000383617  0  
               0.000664838  -0.000442064  0  
               0.000624558  -0.00049726  0  
               0.000579695  -0.000548799  0  
               0.000530578  -0.000596303  0  
               0.000530559  0.000596286  0  
               0.000579641  0.000548755  0  
               0.000624478  0.000497201  0  
               0.000664741  0.000442002  0  
               0.000700137  0.000383561  0  
               0.000730405  0.000322307  0  
               0.000755323  0.000258689  0  
               0.00077471  0.000193173  0  
               -0.000536069  0.000591391  0  
               -0.000475754  0.000641202  0  
               -0.000410835  0.000684843  0  
               -0.000341941  0.000721893  0  
               -0.000269739  0.000751992  0  
               -0.000194929  0.00077485  0  
               -0.000118234  0.000790244  0  
               -4.03976e-05  0.000798026  0  
               3.78268e-05  0.00079812  0  
               0.000115682  0.000790525  0  
               0.000192413  0.000775316  0  
               0.000267278  0.000752639  0  
               0.000339552  0.000722713  0  
               0.000408535  0.000685829  0  
               0.000473559  0.000642344  0  
               -0.000593089  -0.000533975  0  
               -0.000645857  -0.000469149  0  
               -0.000691532  -0.000399145  0  
               -0.000729611  -0.000324735  0  
               -0.000759672  -0.00024674  0  
               -0.000781385  -0.000166022  0  
               -0.000794509  -8.34719e-05  0  
               -0.0007989  0  0  
               -0.000794509  8.34719e-05  0  
               -0.000781385  0.000166022  0  
               -0.000759672  0.00024674  0  
               -0.000729611  0.000324735  0  
               -0.000691532  0.000399145  0  
               -0.000645857  0.000469149  0  
               -0.000593089  0.000533975  0  
               0.0007915  -8e-05  0  
               0.0007915  8e-05  0  
            </DataArray>
         </Points> 

         <Cells>
            <DataArray type="Int32" Name="connectivity" NumberOfComponents="1" format="ascii">
               
            </DataArray> 
            <DataArray type="Int32" Name="offsets" NumberOfComponents="1" format="ascii">
               
            </DataArray>
            <DataArray type="UInt8"  Name="types" NumberOfComponents="1" format="ascii">
               
            </DataArray>
         </Cells>
         <PointData Scalars="Rank " Vectors="Displacement-Cylinder Force ">
            <DataArray type="UInt32" Name="Rank" NumberOfComponents="1" format="ascii">
               0 0 0 0 0 0 0 0 0 0 0 0 0 0 0 0 0 0 0 0 0 0 0 0 0 0 0 0 0 0 0 0 0 0 0 0 0 0 0 0 0 0 0 0 0 0 0 0 0 0 0 0 0 0 0 0 0 0 0 0 0 0 0 
            </DataArray>
            <DataArray type="Float64" Name="Displacement-Cylinder" NumberOfComponents="3" format="ascii">
               0 3.64635e-07 0.0  0 3.64635e-07 0.0  0 3.64635e-07 0.0  0 3.64635e-07 0.0  0 3.64635e-07 0.0  0 3.64635e-07 0.0  0 3.64635e-07 0.0  0 3.64635e-07 0.0  0 3.64635e-07 0.0  0 3.64635e-07 0.0  0 3.64635e-07 0.0  0 3.64635e-07 0.0  0 3.64635e-07 0.0  0 3.64635e-07 0.0  0 3.64635e-07 0.0  0 3.64635e-07 0.0  0 3.64635e-07 0.0  0 3.64635e-07 0.0  0 3.64635e-07 0.0  0 3.64635e-07 0.0  0 3.64635e-07 0.0  0 3.64635e-07 0.0  0 3.64635e-07 0.0  0 3.64635e-07 0.0  0 3.64635e-07 0.0  0 3.64635e-07 0.0  0 3.64635e-07 0.0  0 3.64635e-07 0.0  0 3.64635e-07 0.0  0 3.64635e-07 0.0  0 3.64635e-07 0.0  0 3.64635e-07 0.0  0 3.64635e-07 0.0  0 3.64635e-07 0.0  0 3.64635e-07 0.0  0 3.64635e-07 0.0  0 3.64635e-07 0.0  0 3.64635e-07 0.0  0 3.64635e-07 0.0  0 3.64635e-07 0.0  0 3.64635e-07 0.0  0 3.64635e-07 0.0  0 3.64635e-07 0.0  0 3.64635e-07 0.0  0 3.64635e-07 0.0  0 3.64635e-07 0.0  0 3.64635e-07 0.0  0 3.64635e-07 0.0  0 3.64635e-07 0.0  0 3.64635e-07 0.0  0 3.64635e-07 0.0  0 3.64635e-07 0.0  0 3.64635e-07 0.0  0 3.64635e-07 0.0  0 3.64635e-07 0.0  0 3.64635e-07 0.0  0 3.64635e-07 0.0  0 3.64635e-07 0.0  0 3.64635e-07 0.0  0 3.64635e-07 0.0  0 3.64635e-07 0.0  0 3.64635e-07 0.0  0 3.64635e-07 0.0  
            </DataArray>
            <DataArray type="Float64" Name="Force" NumberOfComponents="3" format="ascii">
               0.000145386 -1.88292e-05 0.0  0.000143901 1.67694e-05 0.0  4.23741e-05 -9.23913e-05 0.0  3.85039e-05 -0.000102643 0.0  3.45464e-05 -0.000113424 0.0  3.02705e-05 -0.00012495 0.0  2.52019e-05 -0.000136088 0.0  1.96497e-05 -0.000145366 0.0  1.35811e-05 -0.000150946 0.0  7.68131e-06 -0.000151031 0.0  3.4531e-06 -0.000144524 0.0  2.72562e-06 -0.000130929 0.0  6.98912e-06 -0.000110925 0.0  1.709e-05 -8.66677e-05 0.0  3.32121e-05 -6.07277e-05 0.0  6.14284e-05 -1.81293e-05 0.0  6.07329e-05 -2.42411e-05 0.0  5.96337e-05 -3.0275e-05 0.0  5.80432e-05 -3.61411e-05 0.0  5.59574e-05 -4.18536e-05 0.0  5.34296e-05 -4.74535e-05 0.0  5.05242e-05 -5.30092e-05 0.0  4.73868e-05 -5.86205e-05 0.0  4.49796e-05 5.575e-05 0.0  4.79468e-05 5.02665e-05 0.0  5.07974e-05 4.49116e-05 0.0  5.33643e-05 3.95484e-05 0.0  5.55882e-05 3.41089e-05 0.0  5.74252e-05 2.85449e-05 0.0  5.88656e-05 2.2825e-05 0.0  5.99795e-05 1.69884e-05 0.0  3.41844e-05 5.92087e-05 0.0  1.80354e-05 8.47958e-05 0.0  7.87078e-06 0.00010863 0.0  3.4803e-06 0.000128166 0.0  4.01096e-06 0.000141266 0.0  7.96389e-06 0.000147292 0.0  1.35079e-05 0.000146797 0.0  1.91988e-05 0.000140903 0.0  2.43643e-05 0.000131475 0.0  2.90344e-05 0.000120361 0.0  3.2992e-05 0.00010901 0.0  3.66105e-05 9.84425e-05 0.0  4.02427e-05 8.84095e-05 0.0  4.40238e-05 7.92001e-05 0.0  4.79253e-05 7.07284e-05 0.0  6.10113e-05 -3.70856e-05 0.0  8.90929e-05 -1.36162e-05 0.0  0.000123839 4.91261e-06 0.0  0.000157887 1.67478e-05 0.0  0.000189533 2.10231e-05 0.0  0.000214789 1.83054e-05 0.0  0.000231186 1.03122e-05 0.0  0.000236916 -1.19916e-07 0.0  0.000231383 -1.05724e-05 0.0  0.000215176 -1.86289e-05 0.0  0.000190098 -2.14595e-05 0.0  0.00015861 -1.73407e-05 0.0  0.000124694 -5.70149e-06 0.0  9.00438e-05 1.25912e-05 0.0  6.20171e-05 3.578e-05 0.0  0 3.6464e-07 0.0  0 3.6464e-07 0.0  
            </DataArray>
         </PointData> 
      </Piece>
   </UnstructuredGrid> 
</VTKFile>
