<?xml version="1.0"?>
<VTKFile type="UnstructuredGrid" version="0.1" byte_order="LittleEndian">
   <UnstructuredGrid>
      <Piece NumberOfPoints="63" NumberOfCells="0" > 
         <Points> 
            <DataArray type="Float64" Name="Position" NumberOfComponents="3" format="ascii"> 
               0.000473559  -0.000642344  0  
               0.000408535  -0.000685829  0  
               0.000339552  -0.000722713  0  
               0.000267278  -0.000752639  0  
               0.000192413  -0.000775316  0  
               0.000115682  -0.000790525  0  
               3.78268e-05  -0.00079812  0  
               -4.03976e-05  -0.000798026  0  
               -0.000118234  -0.000790244  0  
               -0.000194929  -0.00077485  0  
               -0.000269739  -0.000751992  0  
               -0.000341941  -0.000721893  0  
               -0.000410835  -0.000684843  0  
               -0.000475754  -0.000641202  0  
               -0.000536069  -0.000591391  0  
               0.000774734  -0.000193183  0  
               0.000755388  -0.000258717  0  
               0.000730494  -0.000322351  0  
               0.000700236  -0.000383617  0  
               0.000664838  -0.000442064  0  
               0.000624558  -0.00049726  0  
               0.000579695  -0.000548799  0  
               0.000530578  -0.000596303  0  
               0.000530559  0.000596286  0  
               0.000579641  0.000548755  0  
               0.000624478  0.000497201  0  
               0.000664741  0.000442002  0  
               0.000700137  0.000383561  0  
               0.000730405  0.000322307  0  
               0.000755323  0.000258689  0  
               0.00077471  0.000193173  0  
               -0.000536069  0.000591391  0  
               -0.000475754  0.000641202  0  
               -0.000410835  0.000684843  0  
               -0.000341941  0.000721893  0  
               -0.000269739  0.000751992  0  
               -0.000194929  0.00077485  0  
               -0.000118234  0.000790244  0  
               -4.03976e-05  0.000798026  0  
               3.78268e-05  0.00079812  0  
               0.000115682  0.000790525  0  
               0.000192413  0.000775316  0  
               0.000267278  0.000752639  0  
               0.000339552  0.000722713  0  
               0.000408535  0.000685829  0  
               0.000473559  0.000642344  0  
               -0.000593089  -0.000533975  0  
               -0.000645857  -0.000469149  0  
               -0.000691532  -0.000399145  0  
               -0.000729611  -0.000324735  0  
               -0.000759672  -0.00024674  0  
               -0.000781385  -0.000166022  0  
               -0.000794509  -8.34719e-05  0  
               -0.0007989  0  0  
               -0.000794509  8.34719e-05  0  
               -0.000781385  0.000166022  0  
               -0.000759672  0.00024674  0  
               -0.000729611  0.000324735  0  
               -0.000691532  0.000399145  0  
               -0.000645857  0.000469149  0  
               -0.000593089  0.000533975  0  
               0.0007915  -8e-05  0  
               0.0007915  8e-05  0  
            </DataArray>
         </Points> 

         <Cells>
            <DataArray type="Int32" Name="connectivity" NumberOfComponents="1" format="ascii">
               
            </DataArray> 
            <DataArray type="Int32" Name="offsets" NumberOfComponents="1" format="ascii">
               
            </DataArray>
            <DataArray type="UInt8"  Name="types" NumberOfComponents="1" format="ascii">
               
            </DataArray>
         </Cells>
         <PointData Scalars="Rank " Vectors="Displacement-Cylinder Force ">
            <DataArray type="UInt32" Name="Rank" NumberOfComponents="1" format="ascii">
               0 0 0 0 0 0 0 0 0 0 0 0 0 0 0 0 0 0 0 0 0 0 0 0 0 0 0 0 0 0 0 0 0 0 0 0 0 0 0 0 0 0 0 0 0 0 0 0 0 0 0 0 0 0 0 0 0 0 0 0 0 0 0 
            </DataArray>
            <DataArray type="Float64" Name="Displacement-Cylinder" NumberOfComponents="3" format="ascii">
               0 4.72285e-07 0.0  0 4.72285e-07 0.0  0 4.72285e-07 0.0  0 4.72285e-07 0.0  0 4.72285e-07 0.0  0 4.72285e-07 0.0  0 4.72285e-07 0.0  0 4.72285e-07 0.0  0 4.72285e-07 0.0  0 4.72285e-07 0.0  0 4.72285e-07 0.0  0 4.72285e-07 0.0  0 4.72285e-07 0.0  0 4.72285e-07 0.0  0 4.72285e-07 0.0  0 4.72285e-07 0.0  0 4.72285e-07 0.0  0 4.72285e-07 0.0  0 4.72285e-07 0.0  0 4.72285e-07 0.0  0 4.72285e-07 0.0  0 4.72285e-07 0.0  0 4.72285e-07 0.0  0 4.72285e-07 0.0  0 4.72285e-07 0.0  0 4.72285e-07 0.0  0 4.72285e-07 0.0  0 4.72285e-07 0.0  0 4.72285e-07 0.0  0 4.72285e-07 0.0  0 4.72285e-07 0.0  0 4.72285e-07 0.0  0 4.72285e-07 0.0  0 4.72285e-07 0.0  0 4.72285e-07 0.0  0 4.72285e-07 0.0  0 4.72285e-07 0.0  0 4.72285e-07 0.0  0 4.72285e-07 0.0  0 4.72285e-07 0.0  0 4.72285e-07 0.0  0 4.72285e-07 0.0  0 4.72285e-07 0.0  0 4.72285e-07 0.0  0 4.72285e-07 0.0  0 4.72285e-07 0.0  0 4.72285e-07 0.0  0 4.72285e-07 0.0  0 4.72285e-07 0.0  0 4.72285e-07 0.0  0 4.72285e-07 0.0  0 4.72285e-07 0.0  0 4.72285e-07 0.0  0 4.72285e-07 0.0  0 4.72285e-07 0.0  0 4.72285e-07 0.0  0 4.72285e-07 0.0  0 4.72285e-07 0.0  0 4.72285e-07 0.0  0 4.72285e-07 0.0  0 4.72285e-07 0.0  0 4.72285e-07 0.0  0 4.72285e-07 0.0  
            </DataArray>
            <DataArray type="Float64" Name="Force" NumberOfComponents="3" format="ascii">
               0.000169887 -1.83869e-05 0.0  0.000174368 2.31922e-05 0.0  4.47242e-05 -9.73983e-05 0.0  4.04444e-05 -0.000107974 0.0  3.60668e-05 -0.000119066 0.0  3.13537e-05 -0.000130885 0.0  2.58178e-05 -0.000142265 0.0  1.97766e-05 -0.000151697 0.0  1.32016e-05 -0.000157299 0.0  6.79847e-06 -0.000157241 0.0  2.1105e-06 -0.00015042 0.0  1.00238e-06 -0.000136356 0.0  4.98863e-06 -0.000115758 0.0  1.49263e-05 -9.08222e-05 0.0  3.09649e-05 -6.42018e-05 0.0  6.99662e-05 -1.89079e-05 0.0  6.81487e-05 -2.54287e-05 0.0  6.59942e-05 -3.17507e-05 0.0  6.34472e-05 -3.78735e-05 0.0  6.05357e-05 -4.38574e-05 0.0  5.7318e-05 -4.97746e-05 0.0  5.38824e-05 -5.57145e-05 0.0  5.03828e-05 -6.17743e-05 0.0  5.83151e-05 7.08562e-05 0.0  6.22555e-05 6.43092e-05 0.0  6.57819e-05 5.76818e-05 0.0  6.87701e-05 5.09346e-05 0.0  7.11428e-05 4.3992e-05 0.0  7.28388e-05 3.68333e-05 0.0  7.38729e-05 2.94755e-05 0.0  7.4352e-05 2.20603e-05 0.0  2.72843e-05 6.98523e-05 0.0  1.12412e-05 9.78317e-05 0.0  1.45903e-06 0.000124241 0.0  -2.13289e-06 0.000146285 0.0  -3.91468e-07 0.000161691 0.0  5.15903e-06 0.000169659 0.0  1.26302e-05 0.000170582 0.0  2.03576e-05 0.000165571 0.0  2.7596e-05 0.000156379 0.0  3.43933e-05 0.000144891 0.0  4.02994e-05 0.000132659 0.0  4.58239e-05 0.000121059 0.0  5.11442e-05 0.000109985 0.0  5.64568e-05 9.94066e-05 0.0  6.19051e-05 8.93072e-05 0.0  5.86388e-05 -4.01276e-05 0.0  8.679e-05 -1.59936e-05 0.0  0.000121675 3.13446e-06 0.0  0.000155847 1.54904e-05 0.0  0.000187566 2.02088e-05 0.0  0.000212795 1.78822e-05 0.0  0.000229032 1.0276e-05 0.0  0.000234446 2.75788e-07 0.0  0.000228437 -9.65261e-06 0.0  0.000211607 -1.70327e-05 0.0  0.000185783 -1.89515e-05 0.0  0.000153488 -1.36427e-05 0.0  0.000118774 -5.07015e-07 0.0  8.34216e-05 1.95971e-05 0.0  5.49317e-05 4.48961e-05 0.0  0 4.72283e-07 0.0  0 4.72283e-07 0.0  
            </DataArray>
         </PointData> 
      </Piece>
   </UnstructuredGrid> 
</VTKFile>
