<?xml version="1.0"?>
<VTKFile type="UnstructuredGrid" version="0.1" byte_order="LittleEndian">
   <UnstructuredGrid>
      <Piece NumberOfPoints="63" NumberOfCells="0" > 
         <Points> 
            <DataArray type="Float64" Name="Position" NumberOfComponents="3" format="ascii"> 
               0.000473559  -0.000642344  0  
               0.000408535  -0.000685829  0  
               0.000339552  -0.000722713  0  
               0.000267278  -0.000752639  0  
               0.000192413  -0.000775316  0  
               0.000115682  -0.000790525  0  
               3.78268e-05  -0.00079812  0  
               -4.03976e-05  -0.000798026  0  
               -0.000118234  -0.000790244  0  
               -0.000194929  -0.00077485  0  
               -0.000269739  -0.000751992  0  
               -0.000341941  -0.000721893  0  
               -0.000410835  -0.000684843  0  
               -0.000475754  -0.000641202  0  
               -0.000536069  -0.000591391  0  
               0.000774734  -0.000193183  0  
               0.000755388  -0.000258717  0  
               0.000730494  -0.000322351  0  
               0.000700236  -0.000383617  0  
               0.000664838  -0.000442064  0  
               0.000624558  -0.00049726  0  
               0.000579695  -0.000548799  0  
               0.000530578  -0.000596303  0  
               0.000530559  0.000596286  0  
               0.000579641  0.000548755  0  
               0.000624478  0.000497201  0  
               0.000664741  0.000442002  0  
               0.000700137  0.000383561  0  
               0.000730405  0.000322307  0  
               0.000755323  0.000258689  0  
               0.00077471  0.000193173  0  
               -0.000536069  0.000591391  0  
               -0.000475754  0.000641202  0  
               -0.000410835  0.000684843  0  
               -0.000341941  0.000721893  0  
               -0.000269739  0.000751992  0  
               -0.000194929  0.00077485  0  
               -0.000118234  0.000790244  0  
               -4.03976e-05  0.000798026  0  
               3.78268e-05  0.00079812  0  
               0.000115682  0.000790525  0  
               0.000192413  0.000775316  0  
               0.000267278  0.000752639  0  
               0.000339552  0.000722713  0  
               0.000408535  0.000685829  0  
               0.000473559  0.000642344  0  
               -0.000593089  -0.000533975  0  
               -0.000645857  -0.000469149  0  
               -0.000691532  -0.000399145  0  
               -0.000729611  -0.000324735  0  
               -0.000759672  -0.00024674  0  
               -0.000781385  -0.000166022  0  
               -0.000794509  -8.34719e-05  0  
               -0.0007989  0  0  
               -0.000794509  8.34719e-05  0  
               -0.000781385  0.000166022  0  
               -0.000759672  0.00024674  0  
               -0.000729611  0.000324735  0  
               -0.000691532  0.000399145  0  
               -0.000645857  0.000469149  0  
               -0.000593089  0.000533975  0  
               0.0007915  -8e-05  0  
               0.0007915  8e-05  0  
            </DataArray>
         </Points> 

         <Cells>
            <DataArray type="Int32" Name="connectivity" NumberOfComponents="1" format="ascii">
               
            </DataArray> 
            <DataArray type="Int32" Name="offsets" NumberOfComponents="1" format="ascii">
               
            </DataArray>
            <DataArray type="UInt8"  Name="types" NumberOfComponents="1" format="ascii">
               
            </DataArray>
         </Cells>
         <PointData Scalars="Rank " Vectors="Displacement-Cylinder Force ">
            <DataArray type="UInt32" Name="Rank" NumberOfComponents="1" format="ascii">
               0 0 0 0 0 0 0 0 0 0 0 0 0 0 0 0 0 0 0 0 0 0 0 0 0 0 0 0 0 0 0 0 0 0 0 0 0 0 0 0 0 0 0 0 0 0 0 0 0 0 0 0 0 0 0 0 0 0 0 0 0 0 0 
            </DataArray>
            <DataArray type="Float64" Name="Displacement-Cylinder" NumberOfComponents="3" format="ascii">
               0 1.32421e-06 0.0  0 1.32421e-06 0.0  0 1.32421e-06 0.0  0 1.32421e-06 0.0  0 1.32421e-06 0.0  0 1.32421e-06 0.0  0 1.32421e-06 0.0  0 1.32421e-06 0.0  0 1.32421e-06 0.0  0 1.32421e-06 0.0  0 1.32421e-06 0.0  0 1.32421e-06 0.0  0 1.32421e-06 0.0  0 1.32421e-06 0.0  0 1.32421e-06 0.0  0 1.32421e-06 0.0  0 1.32421e-06 0.0  0 1.32421e-06 0.0  0 1.32421e-06 0.0  0 1.32421e-06 0.0  0 1.32421e-06 0.0  0 1.32421e-06 0.0  0 1.32421e-06 0.0  0 1.32421e-06 0.0  0 1.32421e-06 0.0  0 1.32421e-06 0.0  0 1.32421e-06 0.0  0 1.32421e-06 0.0  0 1.32421e-06 0.0  0 1.32421e-06 0.0  0 1.32421e-06 0.0  0 1.32421e-06 0.0  0 1.32421e-06 0.0  0 1.32421e-06 0.0  0 1.32421e-06 0.0  0 1.32421e-06 0.0  0 1.32421e-06 0.0  0 1.32421e-06 0.0  0 1.32421e-06 0.0  0 1.32421e-06 0.0  0 1.32421e-06 0.0  0 1.32421e-06 0.0  0 1.32421e-06 0.0  0 1.32421e-06 0.0  0 1.32421e-06 0.0  0 1.32421e-06 0.0  0 1.32421e-06 0.0  0 1.32421e-06 0.0  0 1.32421e-06 0.0  0 1.32421e-06 0.0  0 1.32421e-06 0.0  0 1.32421e-06 0.0  0 1.32421e-06 0.0  0 1.32421e-06 0.0  0 1.32421e-06 0.0  0 1.32421e-06 0.0  0 1.32421e-06 0.0  0 1.32421e-06 0.0  0 1.32421e-06 0.0  0 1.32421e-06 0.0  0 1.32421e-06 0.0  0 1.32421e-06 0.0  0 1.32421e-06 0.0  
            </DataArray>
            <DataArray type="Float64" Name="Force" NumberOfComponents="3" format="ascii">
               0.000227787 -9.16598e-06 0.0  0.000240237 4.47591e-05 0.0  6.24349e-05 -0.000129546 0.0  5.54747e-05 -0.000141104 0.0  4.84321e-05 -0.000153252 0.0  4.08379e-05 -0.00016559 0.0  3.22571e-05 -0.000176648 0.0  2.35085e-05 -0.000184579 0.0  1.44292e-05 -0.000187584 0.0  5.86333e-06 -0.000184219 0.0  -2.27635e-07 -0.000173366 0.0  -1.9681e-06 -0.000154904 0.0  2.12968e-06 -0.000129868 0.0  1.28828e-05 -0.000100649 0.0  3.00575e-05 -7.04081e-05 0.0  9.30354e-05 -1.98939e-05 0.0  9.07218e-05 -2.99715e-05 0.0  8.83573e-05 -3.99727e-05 0.0  8.59692e-05 -4.98502e-05 0.0  8.31958e-05 -5.94526e-05 0.0  7.99872e-05 -6.85962e-05 0.0  7.60876e-05 -7.71981e-05 0.0  7.15912e-05 -8.54734e-05 0.0  7.24164e-05 8.73635e-05 0.0  7.7722e-05 7.89462e-05 0.0  8.31215e-05 7.09839e-05 0.0  8.8338e-05 6.34395e-05 0.0  9.30675e-05 5.60956e-05 0.0  9.698e-05 4.87048e-05 0.0  9.9854e-05 4.10055e-05 0.0  0.000101764 3.31593e-05 0.0  1.56903e-05 9.1154e-05 0.0  -5.42503e-07 0.000124017 0.0  -9.81672e-06 0.000155433 0.0  -1.19599e-05 0.000181954 0.0  -7.91931e-06 0.000200981 0.0  6.0026e-07 0.000211395 0.0  1.14427e-05 0.000213374 0.0  2.25126e-05 0.000208049 0.0  3.28138e-05 0.000197277 0.0  4.231e-05 0.000183229 0.0  5.03665e-05 0.000167909 0.0  5.7536e-05 0.00015305 0.0  6.4196e-05 0.000138585 0.0  7.04962e-05 0.000124613 0.0  7.69071e-05 0.000111033 0.0  5.92793e-05 -4.38067e-05 0.0  8.93139e-05 -1.72353e-05 0.0  0.000126012 3.55757e-06 0.0  0.000161716 1.68985e-05 0.0  0.000194432 2.20246e-05 0.0  0.000220029 1.97227e-05 0.0  0.000235893 1.20114e-05 0.0  0.000240208 2.00283e-06 0.0  0.000232422 -7.65745e-06 0.0  0.000213235 -1.42848e-05 0.0  0.000184652 -1.4726e-05 0.0  0.000149412 -7.13598e-06 0.0  0.000111869 9.09866e-06 0.0  7.39768e-05 3.30603e-05 0.0  4.38339e-05 6.28194e-05 0.0  0 1.32421e-06 0.0  0 1.32421e-06 0.0  
            </DataArray>
         </PointData> 
      </Piece>
   </UnstructuredGrid> 
</VTKFile>
