<?xml version="1.0"?>
<VTKFile type="UnstructuredGrid" version="0.1" byte_order="LittleEndian">
   <UnstructuredGrid>
      <Piece NumberOfPoints="63" NumberOfCells="0" > 
         <Points> 
            <DataArray type="Float64" Name="Position" NumberOfComponents="3" format="ascii"> 
               0.000473559  -0.000642344  0  
               0.000408535  -0.000685829  0  
               0.000339552  -0.000722713  0  
               0.000267278  -0.000752639  0  
               0.000192413  -0.000775316  0  
               0.000115682  -0.000790525  0  
               3.78268e-05  -0.00079812  0  
               -4.03976e-05  -0.000798026  0  
               -0.000118234  -0.000790244  0  
               -0.000194929  -0.00077485  0  
               -0.000269739  -0.000751992  0  
               -0.000341941  -0.000721893  0  
               -0.000410835  -0.000684843  0  
               -0.000475754  -0.000641202  0  
               -0.000536069  -0.000591391  0  
               0.000774734  -0.000193183  0  
               0.000755388  -0.000258717  0  
               0.000730494  -0.000322351  0  
               0.000700236  -0.000383617  0  
               0.000664838  -0.000442064  0  
               0.000624558  -0.00049726  0  
               0.000579695  -0.000548799  0  
               0.000530578  -0.000596303  0  
               0.000530559  0.000596286  0  
               0.000579641  0.000548755  0  
               0.000624478  0.000497201  0  
               0.000664741  0.000442002  0  
               0.000700137  0.000383561  0  
               0.000730405  0.000322307  0  
               0.000755323  0.000258689  0  
               0.00077471  0.000193173  0  
               -0.000536069  0.000591391  0  
               -0.000475754  0.000641202  0  
               -0.000410835  0.000684843  0  
               -0.000341941  0.000721893  0  
               -0.000269739  0.000751992  0  
               -0.000194929  0.00077485  0  
               -0.000118234  0.000790244  0  
               -4.03976e-05  0.000798026  0  
               3.78268e-05  0.00079812  0  
               0.000115682  0.000790525  0  
               0.000192413  0.000775316  0  
               0.000267278  0.000752639  0  
               0.000339552  0.000722713  0  
               0.000408535  0.000685829  0  
               0.000473559  0.000642344  0  
               -0.000593089  -0.000533975  0  
               -0.000645857  -0.000469149  0  
               -0.000691532  -0.000399145  0  
               -0.000729611  -0.000324735  0  
               -0.000759672  -0.00024674  0  
               -0.000781385  -0.000166022  0  
               -0.000794509  -8.34719e-05  0  
               -0.0007989  0  0  
               -0.000794509  8.34719e-05  0  
               -0.000781385  0.000166022  0  
               -0.000759672  0.00024674  0  
               -0.000729611  0.000324735  0  
               -0.000691532  0.000399145  0  
               -0.000645857  0.000469149  0  
               -0.000593089  0.000533975  0  
               0.0007915  -8e-05  0  
               0.0007915  8e-05  0  
            </DataArray>
         </Points> 

         <Cells>
            <DataArray type="Int32" Name="connectivity" NumberOfComponents="1" format="ascii">
               
            </DataArray> 
            <DataArray type="Int32" Name="offsets" NumberOfComponents="1" format="ascii">
               
            </DataArray>
            <DataArray type="UInt8"  Name="types" NumberOfComponents="1" format="ascii">
               
            </DataArray>
         </Cells>
         <PointData Scalars="Rank " Vectors="Displacement-Cylinder Force ">
            <DataArray type="UInt32" Name="Rank" NumberOfComponents="1" format="ascii">
               0 0 0 0 0 0 0 0 0 0 0 0 0 0 0 0 0 0 0 0 0 0 0 0 0 0 0 0 0 0 0 0 0 0 0 0 0 0 0 0 0 0 0 0 0 0 0 0 0 0 0 0 0 0 0 0 0 0 0 0 0 0 0 
            </DataArray>
            <DataArray type="Float64" Name="Displacement-Cylinder" NumberOfComponents="3" format="ascii">
               0 7.35903e-07 0.0  0 7.35903e-07 0.0  0 7.35903e-07 0.0  0 7.35903e-07 0.0  0 7.35903e-07 0.0  0 7.35903e-07 0.0  0 7.35903e-07 0.0  0 7.35903e-07 0.0  0 7.35903e-07 0.0  0 7.35903e-07 0.0  0 7.35903e-07 0.0  0 7.35903e-07 0.0  0 7.35903e-07 0.0  0 7.35903e-07 0.0  0 7.35903e-07 0.0  0 7.35903e-07 0.0  0 7.35903e-07 0.0  0 7.35903e-07 0.0  0 7.35903e-07 0.0  0 7.35903e-07 0.0  0 7.35903e-07 0.0  0 7.35903e-07 0.0  0 7.35903e-07 0.0  0 7.35903e-07 0.0  0 7.35903e-07 0.0  0 7.35903e-07 0.0  0 7.35903e-07 0.0  0 7.35903e-07 0.0  0 7.35903e-07 0.0  0 7.35903e-07 0.0  0 7.35903e-07 0.0  0 7.35903e-07 0.0  0 7.35903e-07 0.0  0 7.35903e-07 0.0  0 7.35903e-07 0.0  0 7.35903e-07 0.0  0 7.35903e-07 0.0  0 7.35903e-07 0.0  0 7.35903e-07 0.0  0 7.35903e-07 0.0  0 7.35903e-07 0.0  0 7.35903e-07 0.0  0 7.35903e-07 0.0  0 7.35903e-07 0.0  0 7.35903e-07 0.0  0 7.35903e-07 0.0  0 7.35903e-07 0.0  0 7.35903e-07 0.0  0 7.35903e-07 0.0  0 7.35903e-07 0.0  0 7.35903e-07 0.0  0 7.35903e-07 0.0  0 7.35903e-07 0.0  0 7.35903e-07 0.0  0 7.35903e-07 0.0  0 7.35903e-07 0.0  0 7.35903e-07 0.0  0 7.35903e-07 0.0  0 7.35903e-07 0.0  0 7.35903e-07 0.0  0 7.35903e-07 0.0  0 7.35903e-07 0.0  0 7.35903e-07 0.0  
            </DataArray>
            <DataArray type="Float64" Name="Force" NumberOfComponents="3" format="ascii">
               0.000220649 -3.27031e-05 0.0  0.000223195 2.02638e-05 0.0  5.48779e-05 -0.000119348 0.0  4.94666e-05 -0.000132214 0.0  4.37371e-05 -0.000145539 0.0  3.73962e-05 -0.000159489 0.0  2.98577e-05 -0.000172662 0.0  2.15715e-05 -0.000183185 0.0  1.25652e-05 -0.000188965 0.0  3.71241e-06 -0.000188081 0.0  -3.12718e-06 -0.000179407 0.0  -5.89437e-06 -0.000162635 0.0  -2.94211e-06 -0.000138699 0.0  6.64082e-06 -0.000110051 0.0  2.28141e-05 -7.98291e-05 0.0  9.08964e-05 -2.70052e-05 0.0  8.81865e-05 -3.43313e-05 0.0  8.48673e-05 -4.1318e-05 0.0  8.08712e-05 -4.79529e-05 0.0  7.63458e-05 -5.44689e-05 0.0  7.152e-05 -6.10919e-05 0.0  6.66259e-05 -6.79996e-05 0.0  6.19548e-05 -7.53335e-05 0.0  7.85701e-05 9.3471e-05 0.0  8.35511e-05 8.47393e-05 0.0  8.78171e-05 7.58569e-05 0.0  9.10607e-05 6.64145e-05 0.0  9.32502e-05 5.64688e-05 0.0  9.46218e-05 4.61898e-05 0.0  9.52507e-05 3.56915e-05 0.0  9.52588e-05 2.51852e-05 0.0  2.23183e-05 7.9995e-05 0.0  5.63818e-06 0.00011163 0.0  -4.41004e-06 0.000142188 0.0  -7.57876e-06 0.000168403 0.0  -4.71134e-06 0.00018782 0.0  2.66388e-06 0.00019935 0.0  1.26168e-05 0.000203085 0.0  2.31169e-05 0.000200144 0.0  3.32647e-05 0.000191982 0.0  4.31899e-05 0.000180435 0.0  5.20206e-05 0.000167386 0.0  6.01753e-05 0.000154375 0.0  6.81009e-05 0.000141806 0.0  7.59011e-05 0.000129551 0.0  8.34381e-05 0.000117391 0.0  5.08467e-05 -5.32938e-05 0.0  8.0146e-05 -2.59172e-05 0.0  0.000116767 -4.0014e-06 0.0  0.00015281 1.05879e-05 0.0  0.000186407 1.69605e-05 0.0  0.000213295 1.57426e-05 0.0  0.00023082 8.78365e-06 0.0  0.000237038 -8.30503e-07 0.0  0.000231296 -1.04669e-05 0.0  0.000214179 -1.75011e-05 0.0  0.00018754 -1.88359e-05 0.0  0.000154012 -1.25218e-05 0.0  0.000117771 2.17277e-06 0.0  8.07919e-05 2.44529e-05 0.0  5.07831e-05 5.2571e-05 0.0  0 7.35901e-07 0.0  0 7.35901e-07 0.0  
            </DataArray>
         </PointData> 
      </Piece>
   </UnstructuredGrid> 
</VTKFile>
