<?xml version="1.0"?>
<VTKFile type="UnstructuredGrid" version="0.1" byte_order="LittleEndian">
   <UnstructuredGrid>
      <Piece NumberOfPoints="63" NumberOfCells="0" > 
         <Points> 
            <DataArray type="Float64" Name="Position" NumberOfComponents="3" format="ascii"> 
               0.000473559  -0.000642344  0  
               0.000408535  -0.000685829  0  
               0.000339552  -0.000722713  0  
               0.000267278  -0.000752639  0  
               0.000192413  -0.000775316  0  
               0.000115682  -0.000790525  0  
               3.78268e-05  -0.00079812  0  
               -4.03976e-05  -0.000798026  0  
               -0.000118234  -0.000790244  0  
               -0.000194929  -0.00077485  0  
               -0.000269739  -0.000751992  0  
               -0.000341941  -0.000721893  0  
               -0.000410835  -0.000684843  0  
               -0.000475754  -0.000641202  0  
               -0.000536069  -0.000591391  0  
               0.000774734  -0.000193183  0  
               0.000755388  -0.000258717  0  
               0.000730494  -0.000322351  0  
               0.000700236  -0.000383617  0  
               0.000664838  -0.000442064  0  
               0.000624558  -0.00049726  0  
               0.000579695  -0.000548799  0  
               0.000530578  -0.000596303  0  
               0.000530559  0.000596286  0  
               0.000579641  0.000548755  0  
               0.000624478  0.000497201  0  
               0.000664741  0.000442002  0  
               0.000700137  0.000383561  0  
               0.000730405  0.000322307  0  
               0.000755323  0.000258689  0  
               0.00077471  0.000193173  0  
               -0.000536069  0.000591391  0  
               -0.000475754  0.000641202  0  
               -0.000410835  0.000684843  0  
               -0.000341941  0.000721893  0  
               -0.000269739  0.000751992  0  
               -0.000194929  0.00077485  0  
               -0.000118234  0.000790244  0  
               -4.03976e-05  0.000798026  0  
               3.78268e-05  0.00079812  0  
               0.000115682  0.000790525  0  
               0.000192413  0.000775316  0  
               0.000267278  0.000752639  0  
               0.000339552  0.000722713  0  
               0.000408535  0.000685829  0  
               0.000473559  0.000642344  0  
               -0.000593089  -0.000533975  0  
               -0.000645857  -0.000469149  0  
               -0.000691532  -0.000399145  0  
               -0.000729611  -0.000324735  0  
               -0.000759672  -0.00024674  0  
               -0.000781385  -0.000166022  0  
               -0.000794509  -8.34719e-05  0  
               -0.0007989  0  0  
               -0.000794509  8.34719e-05  0  
               -0.000781385  0.000166022  0  
               -0.000759672  0.00024674  0  
               -0.000729611  0.000324735  0  
               -0.000691532  0.000399145  0  
               -0.000645857  0.000469149  0  
               -0.000593089  0.000533975  0  
               0.0007915  -8e-05  0  
               0.0007915  8e-05  0  
            </DataArray>
         </Points> 

         <Cells>
            <DataArray type="Int32" Name="connectivity" NumberOfComponents="1" format="ascii">
               
            </DataArray> 
            <DataArray type="Int32" Name="offsets" NumberOfComponents="1" format="ascii">
               
            </DataArray>
            <DataArray type="UInt8"  Name="types" NumberOfComponents="1" format="ascii">
               
            </DataArray>
         </Cells>
         <PointData Scalars="Rank " Vectors="Displacement-Cylinder Force ">
            <DataArray type="UInt32" Name="Rank" NumberOfComponents="1" format="ascii">
               0 0 0 0 0 0 0 0 0 0 0 0 0 0 0 0 0 0 0 0 0 0 0 0 0 0 0 0 0 0 0 0 0 0 0 0 0 0 0 0 0 0 0 0 0 0 0 0 0 0 0 0 0 0 0 0 0 0 0 0 0 0 0 
            </DataArray>
            <DataArray type="Float64" Name="Displacement-Cylinder" NumberOfComponents="3" format="ascii">
               0 6.53887e-07 0.0  0 6.53887e-07 0.0  0 6.53887e-07 0.0  0 6.53887e-07 0.0  0 6.53887e-07 0.0  0 6.53887e-07 0.0  0 6.53887e-07 0.0  0 6.53887e-07 0.0  0 6.53887e-07 0.0  0 6.53887e-07 0.0  0 6.53887e-07 0.0  0 6.53887e-07 0.0  0 6.53887e-07 0.0  0 6.53887e-07 0.0  0 6.53887e-07 0.0  0 6.53887e-07 0.0  0 6.53887e-07 0.0  0 6.53887e-07 0.0  0 6.53887e-07 0.0  0 6.53887e-07 0.0  0 6.53887e-07 0.0  0 6.53887e-07 0.0  0 6.53887e-07 0.0  0 6.53887e-07 0.0  0 6.53887e-07 0.0  0 6.53887e-07 0.0  0 6.53887e-07 0.0  0 6.53887e-07 0.0  0 6.53887e-07 0.0  0 6.53887e-07 0.0  0 6.53887e-07 0.0  0 6.53887e-07 0.0  0 6.53887e-07 0.0  0 6.53887e-07 0.0  0 6.53887e-07 0.0  0 6.53887e-07 0.0  0 6.53887e-07 0.0  0 6.53887e-07 0.0  0 6.53887e-07 0.0  0 6.53887e-07 0.0  0 6.53887e-07 0.0  0 6.53887e-07 0.0  0 6.53887e-07 0.0  0 6.53887e-07 0.0  0 6.53887e-07 0.0  0 6.53887e-07 0.0  0 6.53887e-07 0.0  0 6.53887e-07 0.0  0 6.53887e-07 0.0  0 6.53887e-07 0.0  0 6.53887e-07 0.0  0 6.53887e-07 0.0  0 6.53887e-07 0.0  0 6.53887e-07 0.0  0 6.53887e-07 0.0  0 6.53887e-07 0.0  0 6.53887e-07 0.0  0 6.53887e-07 0.0  0 6.53887e-07 0.0  0 6.53887e-07 0.0  0 6.53887e-07 0.0  0 6.53887e-07 0.0  0 6.53887e-07 0.0  
            </DataArray>
            <DataArray type="Float64" Name="Force" NumberOfComponents="3" format="ascii">
               0.00021914 -3.61841e-05 0.0  0.000214555 1.47961e-05 0.0  5.6966e-05 -0.000123378 0.0  5.11527e-05 -0.00013632 0.0  4.49993e-05 -0.000149723 0.0  3.82175e-05 -0.000163713 0.0  3.02388e-05 -0.000176801 0.0  2.15449e-05 -0.000187162 0.0  1.21579e-05 -0.000192718 0.0  2.95592e-06 -0.000191585 0.0  -4.18433e-06 -0.000182644 0.0  -7.20986e-06 -0.000165599 0.0  -4.47874e-06 -0.000141393 0.0  4.91933e-06 -0.000112483 0.0  2.09476e-05 -8.20053e-05 0.0  9.18519e-05 -2.86519e-05 0.0  8.98673e-05 -3.61846e-05 0.0  8.71173e-05 -4.34608e-05 0.0  8.35213e-05 -5.03851e-05 0.0  7.92483e-05 -5.71609e-05 0.0  7.45274e-05 -6.39811e-05 0.0  6.95869e-05 -7.10298e-05 0.0  6.46963e-05 -7.84086e-05 0.0  7.04313e-05 8.42729e-05 0.0  7.48748e-05 7.61522e-05 0.0  7.87063e-05 6.7784e-05 0.0  8.18678e-05 5.9032e-05 0.0  8.44145e-05 4.9934e-05 0.0  8.64578e-05 4.0568e-05 0.0  8.80412e-05 3.11169e-05 0.0  8.93864e-05 2.15332e-05 0.0  2.58995e-05 7.40026e-05 0.0  9.26423e-06 0.000104161 0.0  -9.14224e-07 0.000133097 0.0  -4.48579e-06 0.000157714 0.0  -2.28934e-06 0.000175631 0.0  4.15249e-06 0.000185871 0.0  1.2937e-05 0.000188627 0.0  2.21684e-05 0.000185023 0.0  3.1016e-05 0.000176624 0.0  3.96514e-05 0.000165258 0.0  4.72849e-05 0.000152692 0.0  5.43801e-05 0.00014046 0.0  6.12826e-05 0.000128716 0.0  6.81693e-05 0.000117296 0.0  7.48824e-05 0.000106032 0.0  4.87623e-05 -5.53314e-05 0.0  7.79899e-05 -2.76665e-05 0.0  0.00011461 -5.46495e-06 0.0  0.000150735 9.39913e-06 0.0  0.000184501 1.60265e-05 0.0  0.000211654 1.50208e-05 0.0  0.000229546 8.1965e-06 0.0  0.000236229 -1.37647e-06 0.0  0.000231043 -1.10832e-05 0.0  0.000214562 -1.83337e-05 0.0  0.000188614 -2.00809e-05 0.0  0.000155796 -1.43867e-05 0.0  0.000120236 -5.27966e-07 0.0  8.38626e-05 2.06967e-05 0.0  5.42917e-05 4.75543e-05 0.0  0 6.53895e-07 0.0  0 6.53895e-07 0.0  
            </DataArray>
         </PointData> 
      </Piece>
   </UnstructuredGrid> 
</VTKFile>
