<?xml version="1.0"?>
<VTKFile type="UnstructuredGrid" version="0.1" byte_order="LittleEndian">
   <UnstructuredGrid>
      <Piece NumberOfPoints="63" NumberOfCells="0" > 
         <Points> 
            <DataArray type="Float64" Name="Position" NumberOfComponents="3" format="ascii"> 
               0.000473559  -0.000642344  0  
               0.000408535  -0.000685829  0  
               0.000339552  -0.000722713  0  
               0.000267278  -0.000752639  0  
               0.000192413  -0.000775316  0  
               0.000115682  -0.000790525  0  
               3.78268e-05  -0.00079812  0  
               -4.03976e-05  -0.000798026  0  
               -0.000118234  -0.000790244  0  
               -0.000194929  -0.00077485  0  
               -0.000269739  -0.000751992  0  
               -0.000341941  -0.000721893  0  
               -0.000410835  -0.000684843  0  
               -0.000475754  -0.000641202  0  
               -0.000536069  -0.000591391  0  
               0.000774734  -0.000193183  0  
               0.000755388  -0.000258717  0  
               0.000730494  -0.000322351  0  
               0.000700236  -0.000383617  0  
               0.000664838  -0.000442064  0  
               0.000624558  -0.00049726  0  
               0.000579695  -0.000548799  0  
               0.000530578  -0.000596303  0  
               0.000530559  0.000596286  0  
               0.000579641  0.000548755  0  
               0.000624478  0.000497201  0  
               0.000664741  0.000442002  0  
               0.000700137  0.000383561  0  
               0.000730405  0.000322307  0  
               0.000755323  0.000258689  0  
               0.00077471  0.000193173  0  
               -0.000536069  0.000591391  0  
               -0.000475754  0.000641202  0  
               -0.000410835  0.000684843  0  
               -0.000341941  0.000721893  0  
               -0.000269739  0.000751992  0  
               -0.000194929  0.00077485  0  
               -0.000118234  0.000790244  0  
               -4.03976e-05  0.000798026  0  
               3.78268e-05  0.00079812  0  
               0.000115682  0.000790525  0  
               0.000192413  0.000775316  0  
               0.000267278  0.000752639  0  
               0.000339552  0.000722713  0  
               0.000408535  0.000685829  0  
               0.000473559  0.000642344  0  
               -0.000593089  -0.000533975  0  
               -0.000645857  -0.000469149  0  
               -0.000691532  -0.000399145  0  
               -0.000729611  -0.000324735  0  
               -0.000759672  -0.00024674  0  
               -0.000781385  -0.000166022  0  
               -0.000794509  -8.34719e-05  0  
               -0.0007989  0  0  
               -0.000794509  8.34719e-05  0  
               -0.000781385  0.000166022  0  
               -0.000759672  0.00024674  0  
               -0.000729611  0.000324735  0  
               -0.000691532  0.000399145  0  
               -0.000645857  0.000469149  0  
               -0.000593089  0.000533975  0  
               0.0007915  -8e-05  0  
               0.0007915  8e-05  0  
            </DataArray>
         </Points> 

         <Cells>
            <DataArray type="Int32" Name="connectivity" NumberOfComponents="1" format="ascii">
               
            </DataArray> 
            <DataArray type="Int32" Name="offsets" NumberOfComponents="1" format="ascii">
               
            </DataArray>
            <DataArray type="UInt8"  Name="types" NumberOfComponents="1" format="ascii">
               
            </DataArray>
         </Cells>
         <PointData Scalars="Rank " Vectors="Displacement-Cylinder Force ">
            <DataArray type="UInt32" Name="Rank" NumberOfComponents="1" format="ascii">
               0 0 0 0 0 0 0 0 0 0 0 0 0 0 0 0 0 0 0 0 0 0 0 0 0 0 0 0 0 0 0 0 0 0 0 0 0 0 0 0 0 0 0 0 0 0 0 0 0 0 0 0 0 0 0 0 0 0 0 0 0 0 0 
            </DataArray>
            <DataArray type="Float64" Name="Displacement-Cylinder" NumberOfComponents="3" format="ascii">
               0 4.48204e-07 0.0  0 4.48204e-07 0.0  0 4.48204e-07 0.0  0 4.48204e-07 0.0  0 4.48204e-07 0.0  0 4.48204e-07 0.0  0 4.48204e-07 0.0  0 4.48204e-07 0.0  0 4.48204e-07 0.0  0 4.48204e-07 0.0  0 4.48204e-07 0.0  0 4.48204e-07 0.0  0 4.48204e-07 0.0  0 4.48204e-07 0.0  0 4.48204e-07 0.0  0 4.48204e-07 0.0  0 4.48204e-07 0.0  0 4.48204e-07 0.0  0 4.48204e-07 0.0  0 4.48204e-07 0.0  0 4.48204e-07 0.0  0 4.48204e-07 0.0  0 4.48204e-07 0.0  0 4.48204e-07 0.0  0 4.48204e-07 0.0  0 4.48204e-07 0.0  0 4.48204e-07 0.0  0 4.48204e-07 0.0  0 4.48204e-07 0.0  0 4.48204e-07 0.0  0 4.48204e-07 0.0  0 4.48204e-07 0.0  0 4.48204e-07 0.0  0 4.48204e-07 0.0  0 4.48204e-07 0.0  0 4.48204e-07 0.0  0 4.48204e-07 0.0  0 4.48204e-07 0.0  0 4.48204e-07 0.0  0 4.48204e-07 0.0  0 4.48204e-07 0.0  0 4.48204e-07 0.0  0 4.48204e-07 0.0  0 4.48204e-07 0.0  0 4.48204e-07 0.0  0 4.48204e-07 0.0  0 4.48204e-07 0.0  0 4.48204e-07 0.0  0 4.48204e-07 0.0  0 4.48204e-07 0.0  0 4.48204e-07 0.0  0 4.48204e-07 0.0  0 4.48204e-07 0.0  0 4.48204e-07 0.0  0 4.48204e-07 0.0  0 4.48204e-07 0.0  0 4.48204e-07 0.0  0 4.48204e-07 0.0  0 4.48204e-07 0.0  0 4.48204e-07 0.0  0 4.48204e-07 0.0  0 4.48204e-07 0.0  0 4.48204e-07 0.0  
            </DataArray>
            <DataArray type="Float64" Name="Force" NumberOfComponents="3" format="ascii">
               0.000163998 -2.28308e-05 0.0  0.000159761 1.64196e-05 0.0  4.79271e-05 -0.000103578 0.0  4.31653e-05 -0.000114402 0.0  3.82053e-05 -0.000125745 0.0  3.29037e-05 -0.000137727 0.0  2.67166e-05 -0.000149121 0.0  2.00602e-05 -0.000158358 0.0  1.28971e-05 -0.000163587 0.0  5.94812e-06 -0.00016305 0.0  8.18221e-07 -0.000155656 0.0  -6.29276e-07 -0.000140973 0.0  3.11498e-06 -0.000119751 0.0  1.29048e-05 -9.42121e-05 0.0  2.88682e-05 -6.70455e-05 0.0  6.9856e-05 -2.10318e-05 0.0  6.93156e-05 -2.79012e-05 0.0  6.82437e-05 -3.47039e-05 0.0  6.65415e-05 -4.13072e-05 0.0  6.42068e-05 -4.77161e-05 0.0  6.13106e-05 -5.39726e-05 0.0  5.79404e-05 -6.01616e-05 0.0  5.42496e-05 -6.63532e-05 0.0  4.81331e-05 5.91582e-05 0.0  5.1384e-05 5.33369e-05 0.0  5.45348e-05 4.76045e-05 0.0  5.74417e-05 4.18561e-05 0.0  6.00522e-05 3.60279e-05 0.0  6.23214e-05 3.00713e-05 0.0  6.42433e-05 2.39501e-05 0.0  6.58632e-05 1.76572e-05 0.0  3.26162e-05 6.14978e-05 0.0  1.65259e-05 8.75988e-05 0.0  6.46234e-06 0.000111996 0.0  2.25455e-06 0.000132085 0.0  3.05132e-06 0.000145701 0.0  7.35076e-06 0.000152168 0.0  1.33114e-05 0.000152001 0.0  1.94439e-05 0.000146321 0.0  2.50662e-05 0.00013697 0.0  3.0212e-05 0.000125811 0.0  3.4607e-05 0.000114302 0.0  3.8698e-05 0.000103557 0.0  4.27464e-05 9.33258e-05 0.0  4.69132e-05 8.38737e-05 0.0  5.12041e-05 7.50197e-05 0.0  5.64283e-05 -4.26314e-05 0.0  8.46537e-05 -1.80064e-05 0.0  0.000119707 1.55297e-06 0.0  0.000154141 1.42745e-05 0.0  0.000186212 1.92874e-05 0.0  0.00021189 1.71634e-05 0.0  0.000228674 9.63267e-06 0.0  0.000234731 -4.28433e-07 0.0  0.000229453 -1.05707e-05 0.0  0.000213422 -1.83546e-05 0.0  0.000188444 -2.09235e-05 0.0  0.000156994 -1.65206e-05 0.0  0.000123068 -4.55188e-06 0.0  8.83875e-05 1.41258e-05 0.0  6.03383e-05 3.77619e-05 0.0  0 4.48198e-07 0.0  0 4.48198e-07 0.0  
            </DataArray>
         </PointData> 
      </Piece>
   </UnstructuredGrid> 
</VTKFile>
