<?xml version="1.0"?>
<VTKFile type="UnstructuredGrid" version="0.1" byte_order="LittleEndian">
   <UnstructuredGrid>
      <Piece NumberOfPoints="63" NumberOfCells="0" > 
         <Points> 
            <DataArray type="Float64" Name="Position" NumberOfComponents="3" format="ascii"> 
               0.000473559  -0.000642344  0  
               0.000408535  -0.000685829  0  
               0.000339552  -0.000722713  0  
               0.000267278  -0.000752639  0  
               0.000192413  -0.000775316  0  
               0.000115682  -0.000790525  0  
               3.78268e-05  -0.00079812  0  
               -4.03976e-05  -0.000798026  0  
               -0.000118234  -0.000790244  0  
               -0.000194929  -0.00077485  0  
               -0.000269739  -0.000751992  0  
               -0.000341941  -0.000721893  0  
               -0.000410835  -0.000684843  0  
               -0.000475754  -0.000641202  0  
               -0.000536069  -0.000591391  0  
               0.000774734  -0.000193183  0  
               0.000755388  -0.000258717  0  
               0.000730494  -0.000322351  0  
               0.000700236  -0.000383617  0  
               0.000664838  -0.000442064  0  
               0.000624558  -0.00049726  0  
               0.000579695  -0.000548799  0  
               0.000530578  -0.000596303  0  
               0.000530559  0.000596286  0  
               0.000579641  0.000548755  0  
               0.000624478  0.000497201  0  
               0.000664741  0.000442002  0  
               0.000700137  0.000383561  0  
               0.000730405  0.000322307  0  
               0.000755323  0.000258689  0  
               0.00077471  0.000193173  0  
               -0.000536069  0.000591391  0  
               -0.000475754  0.000641202  0  
               -0.000410835  0.000684843  0  
               -0.000341941  0.000721893  0  
               -0.000269739  0.000751992  0  
               -0.000194929  0.00077485  0  
               -0.000118234  0.000790244  0  
               -4.03976e-05  0.000798026  0  
               3.78268e-05  0.00079812  0  
               0.000115682  0.000790525  0  
               0.000192413  0.000775316  0  
               0.000267278  0.000752639  0  
               0.000339552  0.000722713  0  
               0.000408535  0.000685829  0  
               0.000473559  0.000642344  0  
               -0.000593089  -0.000533975  0  
               -0.000645857  -0.000469149  0  
               -0.000691532  -0.000399145  0  
               -0.000729611  -0.000324735  0  
               -0.000759672  -0.00024674  0  
               -0.000781385  -0.000166022  0  
               -0.000794509  -8.34719e-05  0  
               -0.0007989  0  0  
               -0.000794509  8.34719e-05  0  
               -0.000781385  0.000166022  0  
               -0.000759672  0.00024674  0  
               -0.000729611  0.000324735  0  
               -0.000691532  0.000399145  0  
               -0.000645857  0.000469149  0  
               -0.000593089  0.000533975  0  
               0.0007915  -8e-05  0  
               0.0007915  8e-05  0  
            </DataArray>
         </Points> 

         <Cells>
            <DataArray type="Int32" Name="connectivity" NumberOfComponents="1" format="ascii">
               
            </DataArray> 
            <DataArray type="Int32" Name="offsets" NumberOfComponents="1" format="ascii">
               
            </DataArray>
            <DataArray type="UInt8"  Name="types" NumberOfComponents="1" format="ascii">
               
            </DataArray>
         </Cells>
         <PointData Scalars="Rank " Vectors="Displacement-Cylinder Force ">
            <DataArray type="UInt32" Name="Rank" NumberOfComponents="1" format="ascii">
               0 0 0 0 0 0 0 0 0 0 0 0 0 0 0 0 0 0 0 0 0 0 0 0 0 0 0 0 0 0 0 0 0 0 0 0 0 0 0 0 0 0 0 0 0 0 0 0 0 0 0 0 0 0 0 0 0 0 0 0 0 0 0 
            </DataArray>
            <DataArray type="Float64" Name="Displacement-Cylinder" NumberOfComponents="3" format="ascii">
               0 7.39589e-07 0.0  0 7.39589e-07 0.0  0 7.39589e-07 0.0  0 7.39589e-07 0.0  0 7.39589e-07 0.0  0 7.39589e-07 0.0  0 7.39589e-07 0.0  0 7.39589e-07 0.0  0 7.39589e-07 0.0  0 7.39589e-07 0.0  0 7.39589e-07 0.0  0 7.39589e-07 0.0  0 7.39589e-07 0.0  0 7.39589e-07 0.0  0 7.39589e-07 0.0  0 7.39589e-07 0.0  0 7.39589e-07 0.0  0 7.39589e-07 0.0  0 7.39589e-07 0.0  0 7.39589e-07 0.0  0 7.39589e-07 0.0  0 7.39589e-07 0.0  0 7.39589e-07 0.0  0 7.39589e-07 0.0  0 7.39589e-07 0.0  0 7.39589e-07 0.0  0 7.39589e-07 0.0  0 7.39589e-07 0.0  0 7.39589e-07 0.0  0 7.39589e-07 0.0  0 7.39589e-07 0.0  0 7.39589e-07 0.0  0 7.39589e-07 0.0  0 7.39589e-07 0.0  0 7.39589e-07 0.0  0 7.39589e-07 0.0  0 7.39589e-07 0.0  0 7.39589e-07 0.0  0 7.39589e-07 0.0  0 7.39589e-07 0.0  0 7.39589e-07 0.0  0 7.39589e-07 0.0  0 7.39589e-07 0.0  0 7.39589e-07 0.0  0 7.39589e-07 0.0  0 7.39589e-07 0.0  0 7.39589e-07 0.0  0 7.39589e-07 0.0  0 7.39589e-07 0.0  0 7.39589e-07 0.0  0 7.39589e-07 0.0  0 7.39589e-07 0.0  0 7.39589e-07 0.0  0 7.39589e-07 0.0  0 7.39589e-07 0.0  0 7.39589e-07 0.0  0 7.39589e-07 0.0  0 7.39589e-07 0.0  0 7.39589e-07 0.0  0 7.39589e-07 0.0  0 7.39589e-07 0.0  0 7.39589e-07 0.0  0 7.39589e-07 0.0  
            </DataArray>
            <DataArray type="Float64" Name="Force" NumberOfComponents="3" format="ascii">
               0.000209784 -1.96675e-05 0.0  0.000208098 3.02208e-05 0.0  6.31474e-05 -0.000132531 0.0  5.6028e-05 -0.000144668 0.0  4.86577e-05 -0.000157257 0.0  4.06649e-05 -0.000170094 0.0  3.16007e-05 -0.00018162 0.0  2.22843e-05 -0.000190047 0.0  1.25657e-05 -0.000193558 0.0  3.30306e-06 -0.000190622 0.0  -3.5776e-06 -0.000180137 0.0  -6.16424e-06 -0.000161932 0.0  -2.929e-06 -0.000136998 0.0  6.97387e-06 -0.000107727 0.0  2.34068e-05 -7.72167e-05 0.0  8.91282e-05 -2.35736e-05 0.0  8.87559e-05 -3.32072e-05 0.0  8.7912e-05 -4.28117e-05 0.0  8.63491e-05 -5.22397e-05 0.0  8.40706e-05 -6.1394e-05 0.0  8.09446e-05 -7.01704e-05 0.0  7.70042e-05 -7.85427e-05 0.0  7.24196e-05 -8.67766e-05 0.0  5.9612e-05 7.24769e-05 0.0  6.40741e-05 6.553e-05 0.0  6.86573e-05 5.89221e-05 0.0  7.30971e-05 5.25103e-05 0.0  7.71981e-05 4.61332e-05 0.0  8.07553e-05 3.96001e-05 0.0  8.36617e-05 3.27306e-05 0.0  8.59981e-05 2.5571e-05 0.0  2.4593e-05 7.65059e-05 0.0  8.44303e-06 0.000105968 0.0  -1.22678e-06 0.000133818 0.0  -4.41591e-06 0.000157006 0.0  -2.02488e-06 0.00017313 0.0  4.3215e-06 0.000181305 0.0  1.25978e-05 0.000181897 0.0  2.10279e-05 0.000176049 0.0  2.87827e-05 0.000165698 0.0  3.58438e-05 0.00015291 0.0  4.18321e-05 0.00013946 0.0  4.7285e-05 0.00012669 0.0  5.25088e-05 0.000114381 0.0  5.772e-05 0.000102833 0.0  6.31457e-05 9.19107e-05 0.0  5.15455e-05 -5.05581e-05 0.0  8.10625e-05 -2.32662e-05 0.0  0.000117543 -1.5958e-06 0.0  0.000153343 1.26915e-05 0.0  0.000186546 1.87721e-05 0.0  0.000212997 1.73301e-05 0.0  0.000230092 1.0257e-05 0.0  0.000235966 5.94231e-07 0.0  0.000230021 -9.07562e-06 0.0  0.000212884 -1.61594e-05 0.0  0.000186459 -1.76148e-05 0.0  0.000153359 -1.16058e-05 0.0  0.000117786 2.49441e-06 0.0  8.15809e-05 2.38083e-05 0.0  5.25417e-05 5.04955e-05 0.0  0 7.39586e-07 0.0  0 7.39586e-07 0.0  
            </DataArray>
         </PointData> 
      </Piece>
   </UnstructuredGrid> 
</VTKFile>
