<?xml version="1.0"?>
<VTKFile type="UnstructuredGrid" version="0.1" byte_order="LittleEndian">
   <UnstructuredGrid>
      <Piece NumberOfPoints="63" NumberOfCells="0" > 
         <Points> 
            <DataArray type="Float64" Name="Position" NumberOfComponents="3" format="ascii"> 
               0.000473559  -0.000642344  0  
               0.000408535  -0.000685829  0  
               0.000339552  -0.000722713  0  
               0.000267278  -0.000752639  0  
               0.000192413  -0.000775316  0  
               0.000115682  -0.000790525  0  
               3.78268e-05  -0.00079812  0  
               -4.03976e-05  -0.000798026  0  
               -0.000118234  -0.000790244  0  
               -0.000194929  -0.00077485  0  
               -0.000269739  -0.000751992  0  
               -0.000341941  -0.000721893  0  
               -0.000410835  -0.000684843  0  
               -0.000475754  -0.000641202  0  
               -0.000536069  -0.000591391  0  
               0.000774734  -0.000193183  0  
               0.000755388  -0.000258717  0  
               0.000730494  -0.000322351  0  
               0.000700236  -0.000383617  0  
               0.000664838  -0.000442064  0  
               0.000624558  -0.00049726  0  
               0.000579695  -0.000548799  0  
               0.000530578  -0.000596303  0  
               0.000530559  0.000596286  0  
               0.000579641  0.000548755  0  
               0.000624478  0.000497201  0  
               0.000664741  0.000442002  0  
               0.000700137  0.000383561  0  
               0.000730405  0.000322307  0  
               0.000755323  0.000258689  0  
               0.00077471  0.000193173  0  
               -0.000536069  0.000591391  0  
               -0.000475754  0.000641202  0  
               -0.000410835  0.000684843  0  
               -0.000341941  0.000721893  0  
               -0.000269739  0.000751992  0  
               -0.000194929  0.00077485  0  
               -0.000118234  0.000790244  0  
               -4.03976e-05  0.000798026  0  
               3.78268e-05  0.00079812  0  
               0.000115682  0.000790525  0  
               0.000192413  0.000775316  0  
               0.000267278  0.000752639  0  
               0.000339552  0.000722713  0  
               0.000408535  0.000685829  0  
               0.000473559  0.000642344  0  
               -0.000593089  -0.000533975  0  
               -0.000645857  -0.000469149  0  
               -0.000691532  -0.000399145  0  
               -0.000729611  -0.000324735  0  
               -0.000759672  -0.00024674  0  
               -0.000781385  -0.000166022  0  
               -0.000794509  -8.34719e-05  0  
               -0.0007989  0  0  
               -0.000794509  8.34719e-05  0  
               -0.000781385  0.000166022  0  
               -0.000759672  0.00024674  0  
               -0.000729611  0.000324735  0  
               -0.000691532  0.000399145  0  
               -0.000645857  0.000469149  0  
               -0.000593089  0.000533975  0  
               0.0007915  -8e-05  0  
               0.0007915  8e-05  0  
            </DataArray>
         </Points> 

         <Cells>
            <DataArray type="Int32" Name="connectivity" NumberOfComponents="1" format="ascii">
               
            </DataArray> 
            <DataArray type="Int32" Name="offsets" NumberOfComponents="1" format="ascii">
               
            </DataArray>
            <DataArray type="UInt8"  Name="types" NumberOfComponents="1" format="ascii">
               
            </DataArray>
         </Cells>
         <PointData Scalars="Rank " Vectors="Displacement-Cylinder Force ">
            <DataArray type="UInt32" Name="Rank" NumberOfComponents="1" format="ascii">
               0 0 0 0 0 0 0 0 0 0 0 0 0 0 0 0 0 0 0 0 0 0 0 0 0 0 0 0 0 0 0 0 0 0 0 0 0 0 0 0 0 0 0 0 0 0 0 0 0 0 0 0 0 0 0 0 0 0 0 0 0 0 0 
            </DataArray>
            <DataArray type="Float64" Name="Displacement-Cylinder" NumberOfComponents="3" format="ascii">
               0 1.45696e-06 0.0  0 1.45696e-06 0.0  0 1.45696e-06 0.0  0 1.45696e-06 0.0  0 1.45696e-06 0.0  0 1.45696e-06 0.0  0 1.45696e-06 0.0  0 1.45696e-06 0.0  0 1.45696e-06 0.0  0 1.45696e-06 0.0  0 1.45696e-06 0.0  0 1.45696e-06 0.0  0 1.45696e-06 0.0  0 1.45696e-06 0.0  0 1.45696e-06 0.0  0 1.45696e-06 0.0  0 1.45696e-06 0.0  0 1.45696e-06 0.0  0 1.45696e-06 0.0  0 1.45696e-06 0.0  0 1.45696e-06 0.0  0 1.45696e-06 0.0  0 1.45696e-06 0.0  0 1.45696e-06 0.0  0 1.45696e-06 0.0  0 1.45696e-06 0.0  0 1.45696e-06 0.0  0 1.45696e-06 0.0  0 1.45696e-06 0.0  0 1.45696e-06 0.0  0 1.45696e-06 0.0  0 1.45696e-06 0.0  0 1.45696e-06 0.0  0 1.45696e-06 0.0  0 1.45696e-06 0.0  0 1.45696e-06 0.0  0 1.45696e-06 0.0  0 1.45696e-06 0.0  0 1.45696e-06 0.0  0 1.45696e-06 0.0  0 1.45696e-06 0.0  0 1.45696e-06 0.0  0 1.45696e-06 0.0  0 1.45696e-06 0.0  0 1.45696e-06 0.0  0 1.45696e-06 0.0  0 1.45696e-06 0.0  0 1.45696e-06 0.0  0 1.45696e-06 0.0  0 1.45696e-06 0.0  0 1.45696e-06 0.0  0 1.45696e-06 0.0  0 1.45696e-06 0.0  0 1.45696e-06 0.0  0 1.45696e-06 0.0  0 1.45696e-06 0.0  0 1.45696e-06 0.0  0 1.45696e-06 0.0  0 1.45696e-06 0.0  0 1.45696e-06 0.0  0 1.45696e-06 0.0  0 1.45696e-06 0.0  0 1.45696e-06 0.0  
            </DataArray>
            <DataArray type="Float64" Name="Force" NumberOfComponents="3" format="ascii">
               0.000220528 -3.08861e-05 0.0  0.000228152 2.34765e-05 0.0  5.32643e-05 -0.000116189 0.0  4.83023e-05 -0.000129119 0.0  4.30304e-05 -0.000142545 0.0  3.71155e-05 -0.000156658 0.0  2.99678e-05 -0.000170034 0.0  2.20269e-05 -0.000180757 0.0  1.33233e-05 -0.000186696 0.0  4.74651e-06 -0.00018591 0.0  -1.81576e-06 -0.000177269 0.0  -4.28657e-06 -0.000160476 0.0  -1.00928e-06 -0.000136494 0.0  8.9308e-06 -0.000107788 0.0  2.54589e-05 -7.75596e-05 0.0  8.96868e-05 -2.60404e-05 0.0  8.64621e-05 -3.31234e-05 0.0  8.27589e-05 -3.97975e-05 0.0  7.84772e-05 -4.61004e-05 0.0  7.37453e-05 -5.23086e-05 0.0  6.88226e-05 -5.86916e-05 0.0  6.39827e-05 -6.54472e-05 0.0  5.9517e-05 -7.27161e-05 0.0  8.44913e-05 0.000100055 0.0  8.97961e-05 9.08214e-05 0.0  9.4321e-05 8.14979e-05 0.0  9.75559e-05 7.15487e-05 0.0  9.94978e-05 6.10305e-05 0.0  0.000100341 5.00667e-05 0.0  0.000100086 3.88319e-05 0.0  9.91491e-05 2.75826e-05 0.0  2.12189e-05 8.30889e-05 0.0  4.22252e-06 0.000115947 0.0  -5.99835e-06 0.000147903 0.0  -9.09042e-06 0.000175519 0.0  -5.89745e-06 0.000196278 0.0  2.04596e-06 0.000208988 0.0  1.27888e-05 0.000213634 0.0  2.41789e-05 0.000211321 0.0  3.52563e-05 0.000203404 0.0  4.61076e-05 0.000191735 0.0  5.57795e-05 0.000178291 0.0  6.46736e-05 0.000164652 0.0  7.32821e-05 0.000151445 0.0  8.16521e-05 0.000138536 0.0  8.97054e-05 0.000125624 0.0  5.40543e-05 -5.09331e-05 0.0  8.37366e-05 -2.37049e-05 0.0  0.00012071 -2.00986e-06 0.0  0.000157024 1.229e-05 0.0  0.000190788 1.8315e-05 0.0  0.000217715 1.67167e-05 0.0  0.000235132 9.3835e-06 0.0  0.000241086 -5.63144e-07 0.0  0.000234927 -1.04563e-05 0.0  0.000217251 -1.76293e-05 0.0  0.00018993 -1.89295e-05 0.0  0.000155638 -1.23779e-05 0.0  0.000118596 2.77786e-06 0.0  8.08371e-05 2.57517e-05 0.0  5.01608e-05 5.47902e-05 0.0  0 1.45695e-06 0.0  0 1.45695e-06 0.0  
            </DataArray>
         </PointData> 
      </Piece>
   </UnstructuredGrid> 
</VTKFile>
