<?xml version="1.0"?>
<VTKFile type="UnstructuredGrid" version="0.1" byte_order="LittleEndian">
   <UnstructuredGrid>
      <Piece NumberOfPoints="63" NumberOfCells="0" > 
         <Points> 
            <DataArray type="Float64" Name="Position" NumberOfComponents="3" format="ascii"> 
               0.000473559  -0.000642344  0  
               0.000408535  -0.000685829  0  
               0.000339552  -0.000722713  0  
               0.000267278  -0.000752639  0  
               0.000192413  -0.000775316  0  
               0.000115682  -0.000790525  0  
               3.78268e-05  -0.00079812  0  
               -4.03976e-05  -0.000798026  0  
               -0.000118234  -0.000790244  0  
               -0.000194929  -0.00077485  0  
               -0.000269739  -0.000751992  0  
               -0.000341941  -0.000721893  0  
               -0.000410835  -0.000684843  0  
               -0.000475754  -0.000641202  0  
               -0.000536069  -0.000591391  0  
               0.000774734  -0.000193183  0  
               0.000755388  -0.000258717  0  
               0.000730494  -0.000322351  0  
               0.000700236  -0.000383617  0  
               0.000664838  -0.000442064  0  
               0.000624558  -0.00049726  0  
               0.000579695  -0.000548799  0  
               0.000530578  -0.000596303  0  
               0.000530559  0.000596286  0  
               0.000579641  0.000548755  0  
               0.000624478  0.000497201  0  
               0.000664741  0.000442002  0  
               0.000700137  0.000383561  0  
               0.000730405  0.000322307  0  
               0.000755323  0.000258689  0  
               0.00077471  0.000193173  0  
               -0.000536069  0.000591391  0  
               -0.000475754  0.000641202  0  
               -0.000410835  0.000684843  0  
               -0.000341941  0.000721893  0  
               -0.000269739  0.000751992  0  
               -0.000194929  0.00077485  0  
               -0.000118234  0.000790244  0  
               -4.03976e-05  0.000798026  0  
               3.78268e-05  0.00079812  0  
               0.000115682  0.000790525  0  
               0.000192413  0.000775316  0  
               0.000267278  0.000752639  0  
               0.000339552  0.000722713  0  
               0.000408535  0.000685829  0  
               0.000473559  0.000642344  0  
               -0.000593089  -0.000533975  0  
               -0.000645857  -0.000469149  0  
               -0.000691532  -0.000399145  0  
               -0.000729611  -0.000324735  0  
               -0.000759672  -0.00024674  0  
               -0.000781385  -0.000166022  0  
               -0.000794509  -8.34719e-05  0  
               -0.0007989  0  0  
               -0.000794509  8.34719e-05  0  
               -0.000781385  0.000166022  0  
               -0.000759672  0.00024674  0  
               -0.000729611  0.000324735  0  
               -0.000691532  0.000399145  0  
               -0.000645857  0.000469149  0  
               -0.000593089  0.000533975  0  
               0.0007915  -8e-05  0  
               0.0007915  8e-05  0  
            </DataArray>
         </Points> 

         <Cells>
            <DataArray type="Int32" Name="connectivity" NumberOfComponents="1" format="ascii">
               
            </DataArray> 
            <DataArray type="Int32" Name="offsets" NumberOfComponents="1" format="ascii">
               
            </DataArray>
            <DataArray type="UInt8"  Name="types" NumberOfComponents="1" format="ascii">
               
            </DataArray>
         </Cells>
         <PointData Scalars="Rank " Vectors="Displacement-Cylinder Force ">
            <DataArray type="UInt32" Name="Rank" NumberOfComponents="1" format="ascii">
               0 0 0 0 0 0 0 0 0 0 0 0 0 0 0 0 0 0 0 0 0 0 0 0 0 0 0 0 0 0 0 0 0 0 0 0 0 0 0 0 0 0 0 0 0 0 0 0 0 0 0 0 0 0 0 0 0 0 0 0 0 0 0 
            </DataArray>
            <DataArray type="Float64" Name="Displacement-Cylinder" NumberOfComponents="3" format="ascii">
               0 4.05901e-07 0.0  0 4.05901e-07 0.0  0 4.05901e-07 0.0  0 4.05901e-07 0.0  0 4.05901e-07 0.0  0 4.05901e-07 0.0  0 4.05901e-07 0.0  0 4.05901e-07 0.0  0 4.05901e-07 0.0  0 4.05901e-07 0.0  0 4.05901e-07 0.0  0 4.05901e-07 0.0  0 4.05901e-07 0.0  0 4.05901e-07 0.0  0 4.05901e-07 0.0  0 4.05901e-07 0.0  0 4.05901e-07 0.0  0 4.05901e-07 0.0  0 4.05901e-07 0.0  0 4.05901e-07 0.0  0 4.05901e-07 0.0  0 4.05901e-07 0.0  0 4.05901e-07 0.0  0 4.05901e-07 0.0  0 4.05901e-07 0.0  0 4.05901e-07 0.0  0 4.05901e-07 0.0  0 4.05901e-07 0.0  0 4.05901e-07 0.0  0 4.05901e-07 0.0  0 4.05901e-07 0.0  0 4.05901e-07 0.0  0 4.05901e-07 0.0  0 4.05901e-07 0.0  0 4.05901e-07 0.0  0 4.05901e-07 0.0  0 4.05901e-07 0.0  0 4.05901e-07 0.0  0 4.05901e-07 0.0  0 4.05901e-07 0.0  0 4.05901e-07 0.0  0 4.05901e-07 0.0  0 4.05901e-07 0.0  0 4.05901e-07 0.0  0 4.05901e-07 0.0  0 4.05901e-07 0.0  0 4.05901e-07 0.0  0 4.05901e-07 0.0  0 4.05901e-07 0.0  0 4.05901e-07 0.0  0 4.05901e-07 0.0  0 4.05901e-07 0.0  0 4.05901e-07 0.0  0 4.05901e-07 0.0  0 4.05901e-07 0.0  0 4.05901e-07 0.0  0 4.05901e-07 0.0  0 4.05901e-07 0.0  0 4.05901e-07 0.0  0 4.05901e-07 0.0  0 4.05901e-07 0.0  0 4.05901e-07 0.0  0 4.05901e-07 0.0  
            </DataArray>
            <DataArray type="Float64" Name="Force" NumberOfComponents="3" format="ascii">
               0.000149249 -1.62532e-05 0.0  0.000152032 2.05483e-05 0.0  4.10779e-05 -8.98124e-05 0.0  3.73583e-05 -9.98739e-05 0.0  3.3594e-05 -0.000110456 0.0  2.95219e-05 -0.000121812 0.0  2.46992e-05 -0.000132847 0.0  1.93974e-05 -0.000142122 0.0  1.35819e-05 -0.000147809 0.0  7.92527e-06 -0.00014809 0.0  3.89161e-06 -0.000141865 0.0  3.29876e-06 -0.00012861 0.0  7.63223e-06 -0.000108973 0.0  1.7738e-05 -8.50868e-05 0.0  3.38185e-05 -5.94825e-05 0.0  6.18812e-05 -1.69874e-05 0.0  6.055e-05 -2.29877e-05 0.0  5.89124e-05 -2.88517e-05 0.0  5.69103e-05 -3.45622e-05 0.0  5.45481e-05 -4.01475e-05 0.0  5.18738e-05 -4.5658e-05 0.0  4.89369e-05 -5.11543e-05 0.0  4.5884e-05 -5.6747e-05 0.0  4.98301e-05 6.12866e-05 0.0  5.31782e-05 5.54949e-05 0.0  5.62659e-05 4.97489e-05 0.0  5.89384e-05 4.39489e-05 0.0  6.11196e-05 3.80197e-05 0.0  6.27544e-05 3.19238e-05 0.0  6.3841e-05 2.5648e-05 0.0  6.44691e-05 1.93028e-05 0.0  3.13814e-05 6.32746e-05 0.0  1.53384e-05 8.96683e-05 0.0  5.37362e-06 0.000114371 0.0  1.31818e-06 0.000134761 0.0  2.31913e-06 0.000148655 0.0  6.871e-06 0.000155358 0.0  1.31249e-05 0.000155366 0.0  1.95615e-05 0.000149787 0.0  2.54873e-05 0.000140447 0.0  3.09298e-05 0.000129204 0.0  3.55824e-05 0.000117538 0.0  3.99117e-05 0.000106596 0.0  4.41487e-05 9.6154e-05 0.0  4.84987e-05 8.64952e-05 0.0  5.2986e-05 7.74616e-05 0.0  6.15401e-05 -3.60741e-05 0.0  8.94758e-05 -1.2878e-05 0.0  0.000124019 5.43e-06 0.0  0.000157827 1.71026e-05 0.0  0.000189204 2.12759e-05 0.0  0.000214169 1.85232e-05 0.0  0.000230263 1.0573e-05 0.0  0.000235677 2.55083e-07 0.0  0.000229825 -1.00128e-05 0.0  0.000213301 -1.78048e-05 0.0  0.000187916 -2.02733e-05 0.0  0.000156146 -1.56976e-05 0.0  0.000121988 -3.50794e-06 0.0  8.71591e-05 1.54283e-05 0.0  5.90519e-05 3.93481e-05 0.0  0 4.059e-07 0.0  0 4.059e-07 0.0  
            </DataArray>
         </PointData> 
      </Piece>
   </UnstructuredGrid> 
</VTKFile>
