<?xml version="1.0"?>
<VTKFile type="UnstructuredGrid" version="0.1" byte_order="LittleEndian">
   <UnstructuredGrid>
      <Piece NumberOfPoints="63" NumberOfCells="0" > 
         <Points> 
            <DataArray type="Float64" Name="Position" NumberOfComponents="3" format="ascii"> 
               0.000473559  -0.000642344  0  
               0.000408535  -0.000685829  0  
               0.000339552  -0.000722713  0  
               0.000267278  -0.000752639  0  
               0.000192413  -0.000775316  0  
               0.000115682  -0.000790525  0  
               3.78268e-05  -0.00079812  0  
               -4.03976e-05  -0.000798026  0  
               -0.000118234  -0.000790244  0  
               -0.000194929  -0.00077485  0  
               -0.000269739  -0.000751992  0  
               -0.000341941  -0.000721893  0  
               -0.000410835  -0.000684843  0  
               -0.000475754  -0.000641202  0  
               -0.000536069  -0.000591391  0  
               0.000774734  -0.000193183  0  
               0.000755388  -0.000258717  0  
               0.000730494  -0.000322351  0  
               0.000700236  -0.000383617  0  
               0.000664838  -0.000442064  0  
               0.000624558  -0.00049726  0  
               0.000579695  -0.000548799  0  
               0.000530578  -0.000596303  0  
               0.000530559  0.000596286  0  
               0.000579641  0.000548755  0  
               0.000624478  0.000497201  0  
               0.000664741  0.000442002  0  
               0.000700137  0.000383561  0  
               0.000730405  0.000322307  0  
               0.000755323  0.000258689  0  
               0.00077471  0.000193173  0  
               -0.000536069  0.000591391  0  
               -0.000475754  0.000641202  0  
               -0.000410835  0.000684843  0  
               -0.000341941  0.000721893  0  
               -0.000269739  0.000751992  0  
               -0.000194929  0.00077485  0  
               -0.000118234  0.000790244  0  
               -4.03976e-05  0.000798026  0  
               3.78268e-05  0.00079812  0  
               0.000115682  0.000790525  0  
               0.000192413  0.000775316  0  
               0.000267278  0.000752639  0  
               0.000339552  0.000722713  0  
               0.000408535  0.000685829  0  
               0.000473559  0.000642344  0  
               -0.000593089  -0.000533975  0  
               -0.000645857  -0.000469149  0  
               -0.000691532  -0.000399145  0  
               -0.000729611  -0.000324735  0  
               -0.000759672  -0.00024674  0  
               -0.000781385  -0.000166022  0  
               -0.000794509  -8.34719e-05  0  
               -0.0007989  0  0  
               -0.000794509  8.34719e-05  0  
               -0.000781385  0.000166022  0  
               -0.000759672  0.00024674  0  
               -0.000729611  0.000324735  0  
               -0.000691532  0.000399145  0  
               -0.000645857  0.000469149  0  
               -0.000593089  0.000533975  0  
               0.0007915  -8e-05  0  
               0.0007915  8e-05  0  
            </DataArray>
         </Points> 

         <Cells>
            <DataArray type="Int32" Name="connectivity" NumberOfComponents="1" format="ascii">
               
            </DataArray> 
            <DataArray type="Int32" Name="offsets" NumberOfComponents="1" format="ascii">
               
            </DataArray>
            <DataArray type="UInt8"  Name="types" NumberOfComponents="1" format="ascii">
               
            </DataArray>
         </Cells>
         <PointData Scalars="Rank " Vectors="Displacement-Cylinder Force ">
            <DataArray type="UInt32" Name="Rank" NumberOfComponents="1" format="ascii">
               0 0 0 0 0 0 0 0 0 0 0 0 0 0 0 0 0 0 0 0 0 0 0 0 0 0 0 0 0 0 0 0 0 0 0 0 0 0 0 0 0 0 0 0 0 0 0 0 0 0 0 0 0 0 0 0 0 0 0 0 0 0 0 
            </DataArray>
            <DataArray type="Float64" Name="Displacement-Cylinder" NumberOfComponents="3" format="ascii">
               0 1.19856e-06 0.0  0 1.19856e-06 0.0  0 1.19856e-06 0.0  0 1.19856e-06 0.0  0 1.19856e-06 0.0  0 1.19856e-06 0.0  0 1.19856e-06 0.0  0 1.19856e-06 0.0  0 1.19856e-06 0.0  0 1.19856e-06 0.0  0 1.19856e-06 0.0  0 1.19856e-06 0.0  0 1.19856e-06 0.0  0 1.19856e-06 0.0  0 1.19856e-06 0.0  0 1.19856e-06 0.0  0 1.19856e-06 0.0  0 1.19856e-06 0.0  0 1.19856e-06 0.0  0 1.19856e-06 0.0  0 1.19856e-06 0.0  0 1.19856e-06 0.0  0 1.19856e-06 0.0  0 1.19856e-06 0.0  0 1.19856e-06 0.0  0 1.19856e-06 0.0  0 1.19856e-06 0.0  0 1.19856e-06 0.0  0 1.19856e-06 0.0  0 1.19856e-06 0.0  0 1.19856e-06 0.0  0 1.19856e-06 0.0  0 1.19856e-06 0.0  0 1.19856e-06 0.0  0 1.19856e-06 0.0  0 1.19856e-06 0.0  0 1.19856e-06 0.0  0 1.19856e-06 0.0  0 1.19856e-06 0.0  0 1.19856e-06 0.0  0 1.19856e-06 0.0  0 1.19856e-06 0.0  0 1.19856e-06 0.0  0 1.19856e-06 0.0  0 1.19856e-06 0.0  0 1.19856e-06 0.0  0 1.19856e-06 0.0  0 1.19856e-06 0.0  0 1.19856e-06 0.0  0 1.19856e-06 0.0  0 1.19856e-06 0.0  0 1.19856e-06 0.0  0 1.19856e-06 0.0  0 1.19856e-06 0.0  0 1.19856e-06 0.0  0 1.19856e-06 0.0  0 1.19856e-06 0.0  0 1.19856e-06 0.0  0 1.19856e-06 0.0  0 1.19856e-06 0.0  0 1.19856e-06 0.0  0 1.19856e-06 0.0  0 1.19856e-06 0.0  
            </DataArray>
            <DataArray type="Float64" Name="Force" NumberOfComponents="3" format="ascii">
               0.000244431 -4.57611e-05 0.0  0.00021806 1.06506e-05 0.0  7.78879e-05 -0.000162402 0.0  6.89118e-05 -0.000177099 0.0  5.94454e-05 -0.000192174 0.0  4.89418e-05 -0.000207119 0.0  3.69764e-05 -0.000220025 0.0  2.4566e-05 -0.000228859 0.0  1.16687e-05 -0.00023166 0.0  -6.53906e-07 -0.000226992 0.0  -1.01236e-05 -0.000213789 0.0  -1.46809e-05 -0.000192117 0.0  -1.27168e-05 -0.000163236 0.0  -3.34911e-06 -0.000129818 0.0  1.31472e-05 -9.53179e-05 0.0  0.000109395 -3.71902e-05 0.0  0.000111022 -4.7957e-05 0.0  0.000111115 -5.85709e-05 0.0  0.000109447 -6.86695e-05 0.0  0.000106075 -7.8269e-05 0.0  0.000101389 -8.75995e-05 0.0  9.56694e-05 -9.68085e-05 0.0  8.94802e-05 -0.000106364 0.0  5.4109e-05 6.58767e-05 0.0  5.80285e-05 5.90059e-05 0.0  6.22447e-05 5.23401e-05 0.0  6.66422e-05 4.58309e-05 0.0  7.11583e-05 3.93205e-05 0.0  7.57378e-05 3.265e-05 0.0  8.03572e-05 2.56891e-05 0.0  8.50168e-05 1.81435e-05 0.0  3.29154e-05 6.58082e-05 0.0  1.59634e-05 9.43466e-05 0.0  5.30333e-06 0.000121437 0.0  9.95858e-07 0.000144046 0.0  2.17289e-06 0.000159817 0.0  7.25419e-06 0.000167874 0.0  1.42694e-05 0.000168566 0.0  2.14739e-05 0.000163041 0.0  2.80762e-05 0.000153184 0.0  3.41111e-05 0.000141016 0.0  3.91639e-05 0.000128278 0.0  4.38422e-05 0.000116298 0.0  4.83688e-05 0.000104933 0.0  5.29177e-05 9.43196e-05 0.0  5.76138e-05 8.4087e-05 0.0  4.15059e-05 -6.59686e-05 0.0  7.21663e-05 -3.5135e-05 0.0  0.000110513 -1.04065e-05 0.0  0.000148496 6.35341e-06 0.0  0.000184091 1.42831e-05 0.0  0.000212967 1.40415e-05 0.0  0.000232389 7.50159e-06 0.0  0.000240384 -2.14674e-06 0.0  0.000236278 -1.22101e-05 0.0  0.000220652 -2.00527e-05 0.0  0.000195352 -2.2601e-05 0.0  0.00016299 -1.78681e-05 0.0  0.000127736 -5.11278e-06 0.0  9.14876e-05 1.48541e-05 0.0  6.1937e-05 4.02816e-05 0.0  0 1.19856e-06 0.0  0 1.19856e-06 0.0  
            </DataArray>
         </PointData> 
      </Piece>
   </UnstructuredGrid> 
</VTKFile>
