<?xml version="1.0"?>
<VTKFile type="UnstructuredGrid" version="0.1" byte_order="LittleEndian">
   <UnstructuredGrid>
      <Piece NumberOfPoints="63" NumberOfCells="0" > 
         <Points> 
            <DataArray type="Float64" Name="Position" NumberOfComponents="3" format="ascii"> 
               0.000473559  -0.000642344  0  
               0.000408535  -0.000685829  0  
               0.000339552  -0.000722713  0  
               0.000267278  -0.000752639  0  
               0.000192413  -0.000775316  0  
               0.000115682  -0.000790525  0  
               3.78268e-05  -0.00079812  0  
               -4.03976e-05  -0.000798026  0  
               -0.000118234  -0.000790244  0  
               -0.000194929  -0.00077485  0  
               -0.000269739  -0.000751992  0  
               -0.000341941  -0.000721893  0  
               -0.000410835  -0.000684843  0  
               -0.000475754  -0.000641202  0  
               -0.000536069  -0.000591391  0  
               0.000774734  -0.000193183  0  
               0.000755388  -0.000258717  0  
               0.000730494  -0.000322351  0  
               0.000700236  -0.000383617  0  
               0.000664838  -0.000442064  0  
               0.000624558  -0.00049726  0  
               0.000579695  -0.000548799  0  
               0.000530578  -0.000596303  0  
               0.000530559  0.000596286  0  
               0.000579641  0.000548755  0  
               0.000624478  0.000497201  0  
               0.000664741  0.000442002  0  
               0.000700137  0.000383561  0  
               0.000730405  0.000322307  0  
               0.000755323  0.000258689  0  
               0.00077471  0.000193173  0  
               -0.000536069  0.000591391  0  
               -0.000475754  0.000641202  0  
               -0.000410835  0.000684843  0  
               -0.000341941  0.000721893  0  
               -0.000269739  0.000751992  0  
               -0.000194929  0.00077485  0  
               -0.000118234  0.000790244  0  
               -4.03976e-05  0.000798026  0  
               3.78268e-05  0.00079812  0  
               0.000115682  0.000790525  0  
               0.000192413  0.000775316  0  
               0.000267278  0.000752639  0  
               0.000339552  0.000722713  0  
               0.000408535  0.000685829  0  
               0.000473559  0.000642344  0  
               -0.000593089  -0.000533975  0  
               -0.000645857  -0.000469149  0  
               -0.000691532  -0.000399145  0  
               -0.000729611  -0.000324735  0  
               -0.000759672  -0.00024674  0  
               -0.000781385  -0.000166022  0  
               -0.000794509  -8.34719e-05  0  
               -0.0007989  0  0  
               -0.000794509  8.34719e-05  0  
               -0.000781385  0.000166022  0  
               -0.000759672  0.00024674  0  
               -0.000729611  0.000324735  0  
               -0.000691532  0.000399145  0  
               -0.000645857  0.000469149  0  
               -0.000593089  0.000533975  0  
               0.0007915  -8e-05  0  
               0.0007915  8e-05  0  
            </DataArray>
         </Points> 

         <Cells>
            <DataArray type="Int32" Name="connectivity" NumberOfComponents="1" format="ascii">
               
            </DataArray> 
            <DataArray type="Int32" Name="offsets" NumberOfComponents="1" format="ascii">
               
            </DataArray>
            <DataArray type="UInt8"  Name="types" NumberOfComponents="1" format="ascii">
               
            </DataArray>
         </Cells>
         <PointData Scalars="Rank " Vectors="Displacement-Cylinder Force ">
            <DataArray type="UInt32" Name="Rank" NumberOfComponents="1" format="ascii">
               0 0 0 0 0 0 0 0 0 0 0 0 0 0 0 0 0 0 0 0 0 0 0 0 0 0 0 0 0 0 0 0 0 0 0 0 0 0 0 0 0 0 0 0 0 0 0 0 0 0 0 0 0 0 0 0 0 0 0 0 0 0 0 
            </DataArray>
            <DataArray type="Float64" Name="Displacement-Cylinder" NumberOfComponents="3" format="ascii">
               0 6.91744e-07 0.0  0 6.91744e-07 0.0  0 6.91744e-07 0.0  0 6.91744e-07 0.0  0 6.91744e-07 0.0  0 6.91744e-07 0.0  0 6.91744e-07 0.0  0 6.91744e-07 0.0  0 6.91744e-07 0.0  0 6.91744e-07 0.0  0 6.91744e-07 0.0  0 6.91744e-07 0.0  0 6.91744e-07 0.0  0 6.91744e-07 0.0  0 6.91744e-07 0.0  0 6.91744e-07 0.0  0 6.91744e-07 0.0  0 6.91744e-07 0.0  0 6.91744e-07 0.0  0 6.91744e-07 0.0  0 6.91744e-07 0.0  0 6.91744e-07 0.0  0 6.91744e-07 0.0  0 6.91744e-07 0.0  0 6.91744e-07 0.0  0 6.91744e-07 0.0  0 6.91744e-07 0.0  0 6.91744e-07 0.0  0 6.91744e-07 0.0  0 6.91744e-07 0.0  0 6.91744e-07 0.0  0 6.91744e-07 0.0  0 6.91744e-07 0.0  0 6.91744e-07 0.0  0 6.91744e-07 0.0  0 6.91744e-07 0.0  0 6.91744e-07 0.0  0 6.91744e-07 0.0  0 6.91744e-07 0.0  0 6.91744e-07 0.0  0 6.91744e-07 0.0  0 6.91744e-07 0.0  0 6.91744e-07 0.0  0 6.91744e-07 0.0  0 6.91744e-07 0.0  0 6.91744e-07 0.0  0 6.91744e-07 0.0  0 6.91744e-07 0.0  0 6.91744e-07 0.0  0 6.91744e-07 0.0  0 6.91744e-07 0.0  0 6.91744e-07 0.0  0 6.91744e-07 0.0  0 6.91744e-07 0.0  0 6.91744e-07 0.0  0 6.91744e-07 0.0  0 6.91744e-07 0.0  0 6.91744e-07 0.0  0 6.91744e-07 0.0  0 6.91744e-07 0.0  0 6.91744e-07 0.0  0 6.91744e-07 0.0  0 6.91744e-07 0.0  
            </DataArray>
            <DataArray type="Float64" Name="Force" NumberOfComponents="3" format="ascii">
               0.000225003 -4.02239e-05 0.0  0.000207217 1.14573e-05 0.0  6.73824e-05 -0.00014284 0.0  5.98923e-05 -0.000156322 0.0  5.19674e-05 -0.000170253 0.0  4.32408e-05 -0.000184503 0.0  3.31788e-05 -0.000197269 0.0  2.26747e-05 -0.000206659 0.0  1.15897e-05 -0.00021072 0.0  8.81633e-07 -0.000207838 0.0  -7.38364e-06 -0.000196901 0.0  -1.11814e-05 -0.000177764 0.0  -8.90538e-06 -0.000151511 0.0  3.41912e-07 -0.000120651 0.0  1.63964e-05 -8.84718e-05 0.0  9.85008e-05 -3.25757e-05 0.0  9.88386e-05 -4.18724e-05 0.0  9.80138e-05 -5.10358e-05 0.0  9.58787e-05 -5.97992e-05 0.0  9.25167e-05 -6.82017e-05 0.0  8.8109e-05 -7.63714e-05 0.0  8.29877e-05 -8.45058e-05 0.0  7.74862e-05 -9.28592e-05 0.0  5.59635e-05 6.78227e-05 0.0  5.98558e-05 6.0942e-05 0.0  6.37761e-05 5.40772e-05 0.0  6.76479e-05 4.72091e-05 0.0  7.14575e-05 4.02731e-05 0.0  7.51952e-05 3.31591e-05 0.0  7.88619e-05 2.58502e-05 0.0  8.24337e-05 1.81686e-05 0.0  3.0986e-05 6.6456e-05 0.0  1.44188e-05 9.45959e-05 0.0  4.09066e-06 0.000121238 0.0  1.01741e-08 0.00014347 0.0  1.31834e-06 0.000158999 0.0  6.47026e-06 0.00016699 0.0  1.35485e-05 0.000167824 0.0  2.08633e-05 0.00016264 0.0  2.76621e-05 0.00015325 0.0  3.39983e-05 0.000141599 0.0  3.9444e-05 0.000129312 0.0  4.4559e-05 0.00011773 0.0  4.9522e-05 0.000106741 0.0  5.4475e-05 9.63307e-05 0.0  5.95348e-05 8.62151e-05 0.0  4.41632e-05 -6.07186e-05 0.0  7.38226e-05 -3.16681e-05 0.0  0.000110978 -8.33057e-06 0.0  0.000147737 7.43352e-06 0.0  0.000182176 1.47419e-05 0.0  0.00021004 1.42094e-05 0.0  0.000228662 7.65008e-06 0.0  0.000236097 -1.84384e-06 0.0  0.000231685 -1.16531e-05 0.0  0.000216 -1.92047e-05 0.0  0.000190867 -2.14912e-05 0.0  0.000158856 -1.65866e-05 0.0  0.000124078 -3.78589e-06 0.0  8.8388e-05 1.60928e-05 0.0  5.9367e-05 4.13043e-05 0.0  0 6.91747e-07 0.0  0 6.91747e-07 0.0  
            </DataArray>
         </PointData> 
      </Piece>
   </UnstructuredGrid> 
</VTKFile>
