<?xml version="1.0"?>
<VTKFile type="UnstructuredGrid" version="0.1" byte_order="LittleEndian">
   <UnstructuredGrid>
      <Piece NumberOfPoints="63" NumberOfCells="0" > 
         <Points> 
            <DataArray type="Float64" Name="Position" NumberOfComponents="3" format="ascii"> 
               0.000473559  -0.000642344  0  
               0.000408535  -0.000685829  0  
               0.000339552  -0.000722713  0  
               0.000267278  -0.000752639  0  
               0.000192413  -0.000775316  0  
               0.000115682  -0.000790525  0  
               3.78268e-05  -0.00079812  0  
               -4.03976e-05  -0.000798026  0  
               -0.000118234  -0.000790244  0  
               -0.000194929  -0.00077485  0  
               -0.000269739  -0.000751992  0  
               -0.000341941  -0.000721893  0  
               -0.000410835  -0.000684843  0  
               -0.000475754  -0.000641202  0  
               -0.000536069  -0.000591391  0  
               0.000774734  -0.000193183  0  
               0.000755388  -0.000258717  0  
               0.000730494  -0.000322351  0  
               0.000700236  -0.000383617  0  
               0.000664838  -0.000442064  0  
               0.000624558  -0.00049726  0  
               0.000579695  -0.000548799  0  
               0.000530578  -0.000596303  0  
               0.000530559  0.000596286  0  
               0.000579641  0.000548755  0  
               0.000624478  0.000497201  0  
               0.000664741  0.000442002  0  
               0.000700137  0.000383561  0  
               0.000730405  0.000322307  0  
               0.000755323  0.000258689  0  
               0.00077471  0.000193173  0  
               -0.000536069  0.000591391  0  
               -0.000475754  0.000641202  0  
               -0.000410835  0.000684843  0  
               -0.000341941  0.000721893  0  
               -0.000269739  0.000751992  0  
               -0.000194929  0.00077485  0  
               -0.000118234  0.000790244  0  
               -4.03976e-05  0.000798026  0  
               3.78268e-05  0.00079812  0  
               0.000115682  0.000790525  0  
               0.000192413  0.000775316  0  
               0.000267278  0.000752639  0  
               0.000339552  0.000722713  0  
               0.000408535  0.000685829  0  
               0.000473559  0.000642344  0  
               -0.000593089  -0.000533975  0  
               -0.000645857  -0.000469149  0  
               -0.000691532  -0.000399145  0  
               -0.000729611  -0.000324735  0  
               -0.000759672  -0.00024674  0  
               -0.000781385  -0.000166022  0  
               -0.000794509  -8.34719e-05  0  
               -0.0007989  0  0  
               -0.000794509  8.34719e-05  0  
               -0.000781385  0.000166022  0  
               -0.000759672  0.00024674  0  
               -0.000729611  0.000324735  0  
               -0.000691532  0.000399145  0  
               -0.000645857  0.000469149  0  
               -0.000593089  0.000533975  0  
               0.0007915  -8e-05  0  
               0.0007915  8e-05  0  
            </DataArray>
         </Points> 

         <Cells>
            <DataArray type="Int32" Name="connectivity" NumberOfComponents="1" format="ascii">
               
            </DataArray> 
            <DataArray type="Int32" Name="offsets" NumberOfComponents="1" format="ascii">
               
            </DataArray>
            <DataArray type="UInt8"  Name="types" NumberOfComponents="1" format="ascii">
               
            </DataArray>
         </Cells>
         <PointData Scalars="Rank " Vectors="Displacement-Cylinder Force ">
            <DataArray type="UInt32" Name="Rank" NumberOfComponents="1" format="ascii">
               0 0 0 0 0 0 0 0 0 0 0 0 0 0 0 0 0 0 0 0 0 0 0 0 0 0 0 0 0 0 0 0 0 0 0 0 0 0 0 0 0 0 0 0 0 0 0 0 0 0 0 0 0 0 0 0 0 0 0 0 0 0 0 
            </DataArray>
            <DataArray type="Float64" Name="Displacement-Cylinder" NumberOfComponents="3" format="ascii">
               0 3.52002e-07 0.0  0 3.52002e-07 0.0  0 3.52002e-07 0.0  0 3.52002e-07 0.0  0 3.52002e-07 0.0  0 3.52002e-07 0.0  0 3.52002e-07 0.0  0 3.52002e-07 0.0  0 3.52002e-07 0.0  0 3.52002e-07 0.0  0 3.52002e-07 0.0  0 3.52002e-07 0.0  0 3.52002e-07 0.0  0 3.52002e-07 0.0  0 3.52002e-07 0.0  0 3.52002e-07 0.0  0 3.52002e-07 0.0  0 3.52002e-07 0.0  0 3.52002e-07 0.0  0 3.52002e-07 0.0  0 3.52002e-07 0.0  0 3.52002e-07 0.0  0 3.52002e-07 0.0  0 3.52002e-07 0.0  0 3.52002e-07 0.0  0 3.52002e-07 0.0  0 3.52002e-07 0.0  0 3.52002e-07 0.0  0 3.52002e-07 0.0  0 3.52002e-07 0.0  0 3.52002e-07 0.0  0 3.52002e-07 0.0  0 3.52002e-07 0.0  0 3.52002e-07 0.0  0 3.52002e-07 0.0  0 3.52002e-07 0.0  0 3.52002e-07 0.0  0 3.52002e-07 0.0  0 3.52002e-07 0.0  0 3.52002e-07 0.0  0 3.52002e-07 0.0  0 3.52002e-07 0.0  0 3.52002e-07 0.0  0 3.52002e-07 0.0  0 3.52002e-07 0.0  0 3.52002e-07 0.0  0 3.52002e-07 0.0  0 3.52002e-07 0.0  0 3.52002e-07 0.0  0 3.52002e-07 0.0  0 3.52002e-07 0.0  0 3.52002e-07 0.0  0 3.52002e-07 0.0  0 3.52002e-07 0.0  0 3.52002e-07 0.0  0 3.52002e-07 0.0  0 3.52002e-07 0.0  0 3.52002e-07 0.0  0 3.52002e-07 0.0  0 3.52002e-07 0.0  0 3.52002e-07 0.0  0 3.52002e-07 0.0  0 3.52002e-07 0.0  
            </DataArray>
            <DataArray type="Float64" Name="Force" NumberOfComponents="3" format="ascii">
               0.000143909 -1.66508e-05 0.0  0.00014446 1.88562e-05 0.0  4.15017e-05 -9.05359e-05 0.0  3.77693e-05 -0.000100647 0.0  3.39646e-05 -0.0001113 0.0  2.98565e-05 -0.000122713 0.0  2.49745e-05 -0.000133764 0.0  1.96201e-05 -0.000142996 0.0  1.37568e-05 -0.00014858 0.0  8.06243e-06 -0.000148719 0.0  4.02544e-06 -0.000142316 0.0  3.46571e-06 -0.000128866 0.0  7.86748e-06 -0.00010904 0.0  1.80743e-05 -8.49803e-05 0.0  3.42716e-05 -5.92436e-05 0.0  6.03393e-05 -1.71064e-05 0.0  5.94457e-05 -2.316e-05 0.0  5.82171e-05 -2.91242e-05 0.0  5.65781e-05 -3.49449e-05 0.0  5.45123e-05 -4.06256e-05 0.0  5.20575e-05 -4.62021e-05 0.0  4.92603e-05 -5.17314e-05 0.0  4.62558e-05 -5.73078e-05 0.0  4.58583e-05 5.67977e-05 0.0  4.89293e-05 5.12965e-05 0.0  5.18684e-05 4.59366e-05 0.0  5.44921e-05 4.05789e-05 0.0  5.67113e-05 3.51338e-05 0.0  5.8477e-05 2.95482e-05 0.0  5.97757e-05 2.37858e-05 0.0  6.06846e-05 1.79219e-05 0.0  3.35522e-05 6.03869e-05 0.0  1.74033e-05 8.62098e-05 0.0  7.27616e-06 0.000110283 0.0  2.96787e-06 0.000130033 0.0  3.62145e-06 0.000143305 0.0  7.72879e-06 0.000149445 0.0  1.34444e-05 0.000148997 0.0  1.9304e-05 0.000143083 0.0  2.46255e-05 0.000133577 0.0  2.94347e-05 0.00012234 0.0  3.35091e-05 0.000110845 0.0  3.72267e-05 0.000100128 0.0  4.09473e-05 8.99416e-05 0.0  4.48167e-05 8.05832e-05 0.0  4.88187e-05 7.19864e-05 0.0  6.21716e-05 -3.57219e-05 0.0  9.02746e-05 -1.24702e-05 0.0  0.000124989 5.84916e-06 0.0  0.000158971 1.74915e-05 0.0  0.000190514 2.15955e-05 0.0  0.000215639 1.87364e-05 0.0  0.00023188 1.06422e-05 0.0  0.000237435 1.4663e-07 0.0  0.000231713 -1.03318e-05 0.0  0.000215311 -1.83711e-05 0.0  0.000190038 -2.1132e-05 0.0  0.000158367 -1.68969e-05 0.0  0.00012429 -5.10036e-06 0.0  8.95072e-05 1.33861e-05 0.0  6.14039e-05 3.67953e-05 0.0  0 3.52001e-07 0.0  0 3.52001e-07 0.0  
            </DataArray>
         </PointData> 
      </Piece>
   </UnstructuredGrid> 
</VTKFile>
