<?xml version="1.0"?>
<VTKFile type="UnstructuredGrid" version="0.1" byte_order="LittleEndian">
   <UnstructuredGrid>
      <Piece NumberOfPoints="63" NumberOfCells="0" > 
         <Points> 
            <DataArray type="Float64" Name="Position" NumberOfComponents="3" format="ascii"> 
               0.000473559  -0.000642344  0  
               0.000408535  -0.000685829  0  
               0.000339552  -0.000722713  0  
               0.000267278  -0.000752639  0  
               0.000192413  -0.000775316  0  
               0.000115682  -0.000790525  0  
               3.78268e-05  -0.00079812  0  
               -4.03976e-05  -0.000798026  0  
               -0.000118234  -0.000790244  0  
               -0.000194929  -0.00077485  0  
               -0.000269739  -0.000751992  0  
               -0.000341941  -0.000721893  0  
               -0.000410835  -0.000684843  0  
               -0.000475754  -0.000641202  0  
               -0.000536069  -0.000591391  0  
               0.000774734  -0.000193183  0  
               0.000755388  -0.000258717  0  
               0.000730494  -0.000322351  0  
               0.000700236  -0.000383617  0  
               0.000664838  -0.000442064  0  
               0.000624558  -0.00049726  0  
               0.000579695  -0.000548799  0  
               0.000530578  -0.000596303  0  
               0.000530559  0.000596286  0  
               0.000579641  0.000548755  0  
               0.000624478  0.000497201  0  
               0.000664741  0.000442002  0  
               0.000700137  0.000383561  0  
               0.000730405  0.000322307  0  
               0.000755323  0.000258689  0  
               0.00077471  0.000193173  0  
               -0.000536069  0.000591391  0  
               -0.000475754  0.000641202  0  
               -0.000410835  0.000684843  0  
               -0.000341941  0.000721893  0  
               -0.000269739  0.000751992  0  
               -0.000194929  0.00077485  0  
               -0.000118234  0.000790244  0  
               -4.03976e-05  0.000798026  0  
               3.78268e-05  0.00079812  0  
               0.000115682  0.000790525  0  
               0.000192413  0.000775316  0  
               0.000267278  0.000752639  0  
               0.000339552  0.000722713  0  
               0.000408535  0.000685829  0  
               0.000473559  0.000642344  0  
               -0.000593089  -0.000533975  0  
               -0.000645857  -0.000469149  0  
               -0.000691532  -0.000399145  0  
               -0.000729611  -0.000324735  0  
               -0.000759672  -0.00024674  0  
               -0.000781385  -0.000166022  0  
               -0.000794509  -8.34719e-05  0  
               -0.0007989  0  0  
               -0.000794509  8.34719e-05  0  
               -0.000781385  0.000166022  0  
               -0.000759672  0.00024674  0  
               -0.000729611  0.000324735  0  
               -0.000691532  0.000399145  0  
               -0.000645857  0.000469149  0  
               -0.000593089  0.000533975  0  
               0.0007915  -8e-05  0  
               0.0007915  8e-05  0  
            </DataArray>
         </Points> 

         <Cells>
            <DataArray type="Int32" Name="connectivity" NumberOfComponents="1" format="ascii">
               
            </DataArray> 
            <DataArray type="Int32" Name="offsets" NumberOfComponents="1" format="ascii">
               
            </DataArray>
            <DataArray type="UInt8"  Name="types" NumberOfComponents="1" format="ascii">
               
            </DataArray>
         </Cells>
         <PointData Scalars="Rank " Vectors="Displacement-Cylinder Force ">
            <DataArray type="UInt32" Name="Rank" NumberOfComponents="1" format="ascii">
               0 0 0 0 0 0 0 0 0 0 0 0 0 0 0 0 0 0 0 0 0 0 0 0 0 0 0 0 0 0 0 0 0 0 0 0 0 0 0 0 0 0 0 0 0 0 0 0 0 0 0 0 0 0 0 0 0 0 0 0 0 0 0 
            </DataArray>
            <DataArray type="Float64" Name="Displacement-Cylinder" NumberOfComponents="3" format="ascii">
               0 5.23984e-07 0.0  0 5.23984e-07 0.0  0 5.23984e-07 0.0  0 5.23984e-07 0.0  0 5.23984e-07 0.0  0 5.23984e-07 0.0  0 5.23984e-07 0.0  0 5.23984e-07 0.0  0 5.23984e-07 0.0  0 5.23984e-07 0.0  0 5.23984e-07 0.0  0 5.23984e-07 0.0  0 5.23984e-07 0.0  0 5.23984e-07 0.0  0 5.23984e-07 0.0  0 5.23984e-07 0.0  0 5.23984e-07 0.0  0 5.23984e-07 0.0  0 5.23984e-07 0.0  0 5.23984e-07 0.0  0 5.23984e-07 0.0  0 5.23984e-07 0.0  0 5.23984e-07 0.0  0 5.23984e-07 0.0  0 5.23984e-07 0.0  0 5.23984e-07 0.0  0 5.23984e-07 0.0  0 5.23984e-07 0.0  0 5.23984e-07 0.0  0 5.23984e-07 0.0  0 5.23984e-07 0.0  0 5.23984e-07 0.0  0 5.23984e-07 0.0  0 5.23984e-07 0.0  0 5.23984e-07 0.0  0 5.23984e-07 0.0  0 5.23984e-07 0.0  0 5.23984e-07 0.0  0 5.23984e-07 0.0  0 5.23984e-07 0.0  0 5.23984e-07 0.0  0 5.23984e-07 0.0  0 5.23984e-07 0.0  0 5.23984e-07 0.0  0 5.23984e-07 0.0  0 5.23984e-07 0.0  0 5.23984e-07 0.0  0 5.23984e-07 0.0  0 5.23984e-07 0.0  0 5.23984e-07 0.0  0 5.23984e-07 0.0  0 5.23984e-07 0.0  0 5.23984e-07 0.0  0 5.23984e-07 0.0  0 5.23984e-07 0.0  0 5.23984e-07 0.0  0 5.23984e-07 0.0  0 5.23984e-07 0.0  0 5.23984e-07 0.0  0 5.23984e-07 0.0  0 5.23984e-07 0.0  0 5.23984e-07 0.0  0 5.23984e-07 0.0  
            </DataArray>
            <DataArray type="Float64" Name="Force" NumberOfComponents="3" format="ascii">
               0.000175348 -1.49351e-05 0.0  0.000180674 2.76634e-05 0.0  4.78167e-05 -0.000102845 0.0  4.30393e-05 -0.000113357 0.0  3.81034e-05 -0.000124447 0.0  3.2847e-05 -0.000136219 0.0  2.67595e-05 -0.000147349 0.0  2.027e-05 -0.000156335 0.0  1.33136e-05 -0.000161333 0.0  6.60224e-06 -0.000160615 0.0  1.74201e-06 -0.000153084 0.0  5.77846e-07 -0.000138321 0.0  4.60343e-06 -0.000117084 0.0  1.46618e-05 -9.1582e-05 0.0  3.08442e-05 -6.45169e-05 0.0  7.22887e-05 -1.82281e-05 0.0  7.06041e-05 -2.54468e-05 0.0  6.86342e-05 -3.24903e-05 0.0  6.63564e-05 -3.94054e-05 0.0  6.37379e-05 -4.61851e-05 0.0  6.07792e-05 -5.28267e-05 0.0  5.74994e-05 -5.93646e-05 0.0  5.39598e-05 -6.58016e-05 0.0  5.77156e-05 7.02454e-05 0.0  6.18337e-05 6.37453e-05 0.0  6.57251e-05 5.73475e-05 0.0  6.91951e-05 5.09562e-05 0.0  7.21217e-05 4.44681e-05 0.0  7.43573e-05 3.77807e-05 0.0  7.58478e-05 3.08267e-05 0.0  7.67127e-05 2.37521e-05 0.0  2.58739e-05 7.22795e-05 0.0  9.93879e-06 0.000100507 0.0  3.26865e-07 0.000127083 0.0  -3.04879e-06 0.000149177 0.0  -1.06448e-06 0.000164486 0.0  4.71892e-06 0.000172213 0.0  1.2368e-05 0.000172776 0.0  2.02177e-05 0.000167295 0.0  2.75067e-05 0.000157614 0.0  3.42436e-05 0.000145673 0.0  4.00394e-05 0.000133104 0.0  4.54221e-05 0.000121168 0.0  5.0599e-05 0.0001097 0.0  5.57946e-05 9.88998e-05 0.0  6.11608e-05 8.86724e-05 0.0  5.86632e-05 -4.0155e-05 0.0  8.70275e-05 -1.57616e-05 0.0  0.000122053 3.51959e-06 0.0  0.000156312 1.59488e-05 0.0  0.000188033 2.06838e-05 0.0  0.000213186 1.83501e-05 0.0  0.000229266 1.07509e-05 0.0  0.000234457 7.87689e-07 0.0  0.000228178 -9.06347e-06 0.0  0.000211047 -1.63067e-05 0.0  0.000184924 -1.80095e-05 0.0  0.000152353 -1.24192e-05 0.0  0.000117428 1.04527e-06 0.0  8.19258e-05 2.15036e-05 0.0  5.34325e-05 4.71464e-05 0.0  0 5.23983e-07 0.0  0 5.23983e-07 0.0  
            </DataArray>
         </PointData> 
      </Piece>
   </UnstructuredGrid> 
</VTKFile>
