<?xml version="1.0"?>
<VTKFile type="UnstructuredGrid" version="0.1" byte_order="LittleEndian">
   <UnstructuredGrid>
      <Piece NumberOfPoints="63" NumberOfCells="0" > 
         <Points> 
            <DataArray type="Float64" Name="Position" NumberOfComponents="3" format="ascii"> 
               0.000473559  -0.000642344  0  
               0.000408535  -0.000685829  0  
               0.000339552  -0.000722713  0  
               0.000267278  -0.000752639  0  
               0.000192413  -0.000775316  0  
               0.000115682  -0.000790525  0  
               3.78268e-05  -0.00079812  0  
               -4.03976e-05  -0.000798026  0  
               -0.000118234  -0.000790244  0  
               -0.000194929  -0.00077485  0  
               -0.000269739  -0.000751992  0  
               -0.000341941  -0.000721893  0  
               -0.000410835  -0.000684843  0  
               -0.000475754  -0.000641202  0  
               -0.000536069  -0.000591391  0  
               0.000774734  -0.000193183  0  
               0.000755388  -0.000258717  0  
               0.000730494  -0.000322351  0  
               0.000700236  -0.000383617  0  
               0.000664838  -0.000442064  0  
               0.000624558  -0.00049726  0  
               0.000579695  -0.000548799  0  
               0.000530578  -0.000596303  0  
               0.000530559  0.000596286  0  
               0.000579641  0.000548755  0  
               0.000624478  0.000497201  0  
               0.000664741  0.000442002  0  
               0.000700137  0.000383561  0  
               0.000730405  0.000322307  0  
               0.000755323  0.000258689  0  
               0.00077471  0.000193173  0  
               -0.000536069  0.000591391  0  
               -0.000475754  0.000641202  0  
               -0.000410835  0.000684843  0  
               -0.000341941  0.000721893  0  
               -0.000269739  0.000751992  0  
               -0.000194929  0.00077485  0  
               -0.000118234  0.000790244  0  
               -4.03976e-05  0.000798026  0  
               3.78268e-05  0.00079812  0  
               0.000115682  0.000790525  0  
               0.000192413  0.000775316  0  
               0.000267278  0.000752639  0  
               0.000339552  0.000722713  0  
               0.000408535  0.000685829  0  
               0.000473559  0.000642344  0  
               -0.000593089  -0.000533975  0  
               -0.000645857  -0.000469149  0  
               -0.000691532  -0.000399145  0  
               -0.000729611  -0.000324735  0  
               -0.000759672  -0.00024674  0  
               -0.000781385  -0.000166022  0  
               -0.000794509  -8.34719e-05  0  
               -0.0007989  0  0  
               -0.000794509  8.34719e-05  0  
               -0.000781385  0.000166022  0  
               -0.000759672  0.00024674  0  
               -0.000729611  0.000324735  0  
               -0.000691532  0.000399145  0  
               -0.000645857  0.000469149  0  
               -0.000593089  0.000533975  0  
               0.0007915  -8e-05  0  
               0.0007915  8e-05  0  
            </DataArray>
         </Points> 

         <Cells>
            <DataArray type="Int32" Name="connectivity" NumberOfComponents="1" format="ascii">
               
            </DataArray> 
            <DataArray type="Int32" Name="offsets" NumberOfComponents="1" format="ascii">
               
            </DataArray>
            <DataArray type="UInt8"  Name="types" NumberOfComponents="1" format="ascii">
               
            </DataArray>
         </Cells>
         <PointData Scalars="Rank " Vectors="Displacement-Cylinder Force ">
            <DataArray type="UInt32" Name="Rank" NumberOfComponents="1" format="ascii">
               0 0 0 0 0 0 0 0 0 0 0 0 0 0 0 0 0 0 0 0 0 0 0 0 0 0 0 0 0 0 0 0 0 0 0 0 0 0 0 0 0 0 0 0 0 0 0 0 0 0 0 0 0 0 0 0 0 0 0 0 0 0 0 
            </DataArray>
            <DataArray type="Float64" Name="Displacement-Cylinder" NumberOfComponents="3" format="ascii">
               0 1.20564e-06 0.0  0 1.20564e-06 0.0  0 1.20564e-06 0.0  0 1.20564e-06 0.0  0 1.20564e-06 0.0  0 1.20564e-06 0.0  0 1.20564e-06 0.0  0 1.20564e-06 0.0  0 1.20564e-06 0.0  0 1.20564e-06 0.0  0 1.20564e-06 0.0  0 1.20564e-06 0.0  0 1.20564e-06 0.0  0 1.20564e-06 0.0  0 1.20564e-06 0.0  0 1.20564e-06 0.0  0 1.20564e-06 0.0  0 1.20564e-06 0.0  0 1.20564e-06 0.0  0 1.20564e-06 0.0  0 1.20564e-06 0.0  0 1.20564e-06 0.0  0 1.20564e-06 0.0  0 1.20564e-06 0.0  0 1.20564e-06 0.0  0 1.20564e-06 0.0  0 1.20564e-06 0.0  0 1.20564e-06 0.0  0 1.20564e-06 0.0  0 1.20564e-06 0.0  0 1.20564e-06 0.0  0 1.20564e-06 0.0  0 1.20564e-06 0.0  0 1.20564e-06 0.0  0 1.20564e-06 0.0  0 1.20564e-06 0.0  0 1.20564e-06 0.0  0 1.20564e-06 0.0  0 1.20564e-06 0.0  0 1.20564e-06 0.0  0 1.20564e-06 0.0  0 1.20564e-06 0.0  0 1.20564e-06 0.0  0 1.20564e-06 0.0  0 1.20564e-06 0.0  0 1.20564e-06 0.0  0 1.20564e-06 0.0  0 1.20564e-06 0.0  0 1.20564e-06 0.0  0 1.20564e-06 0.0  0 1.20564e-06 0.0  0 1.20564e-06 0.0  0 1.20564e-06 0.0  0 1.20564e-06 0.0  0 1.20564e-06 0.0  0 1.20564e-06 0.0  0 1.20564e-06 0.0  0 1.20564e-06 0.0  0 1.20564e-06 0.0  0 1.20564e-06 0.0  0 1.20564e-06 0.0  0 1.20564e-06 0.0  0 1.20564e-06 0.0  
            </DataArray>
            <DataArray type="Float64" Name="Force" NumberOfComponents="3" format="ascii">
               0.000253153 -5.21261e-05 0.0  0.000229288 3.50207e-06 0.0  7.14062e-05 -0.000151826 0.0  6.37067e-05 -0.00016655 0.0  5.54334e-05 -0.000181781 0.0  4.61441e-05 -0.000197333 0.0  3.52767e-05 -0.000211174 0.0  2.38001e-05 -0.000221276 0.0  1.16133e-05 -0.000225554 0.0  -2.24254e-07 -0.000222336 0.0  -9.48287e-06 -0.00021053 0.0  -1.4031e-05 -0.000190094 0.0  -1.21935e-05 -0.000162228 0.0  -3.04931e-06 -0.000129612 0.0  1.32072e-05 -9.56801e-05 0.0  0.000109943 -3.77982e-05 0.0  0.000109184 -4.67301e-05 0.0  0.000107089 -5.55114e-05 0.0  0.000103555 -6.38425e-05 0.0  9.88213e-05 -7.19386e-05 0.0  9.32721e-05 -8.00928e-05 0.0  8.73698e-05 -8.85745e-05 0.0  8.1371e-05 -9.75218e-05 0.0  6.20251e-05 7.44331e-05 0.0  6.60981e-05 6.67197e-05 0.0  6.98683e-05 5.87574e-05 0.0  7.35737e-05 5.06034e-05 0.0  7.74326e-05 4.23081e-05 0.0  8.14257e-05 3.38355e-05 0.0  8.56715e-05 2.53112e-05 0.0  9.00682e-05 1.63527e-05 0.0  3.26527e-05 6.57196e-05 0.0  1.54634e-05 9.48466e-05 0.0  4.60157e-06 0.000122744 0.0  1.93678e-07 0.000146368 0.0  1.40801e-06 0.000163358 0.0  6.72505e-06 0.000172773 0.0  1.42463e-05 0.00017486 0.0  2.21421e-05 0.000170756 0.0  2.96118e-05 0.000162113 0.0  3.68465e-05 0.000150802 0.0  4.3139e-05 0.000138519 0.0  4.90059e-05 0.000126827 0.0  5.47357e-05 0.000115738 0.0  6.0568e-05 0.000105056 0.0  6.61759e-05 9.44361e-05 0.0  4.13666e-05 -6.66852e-05 0.0  7.17053e-05 -3.61172e-05 0.0  0.000109906 -1.14906e-05 0.0  0.000147813 5.27321e-06 0.0  0.000183449 1.32691e-05 0.0  0.000212444 1.31102e-05 0.0  0.000232053 6.62608e-06 0.0  0.000240259 -2.99617e-06 0.0  0.000236364 -1.30557e-05 0.0  0.000220921 -2.09222e-05 0.0  0.000195736 -2.35218e-05 0.0  0.000163421 -1.88216e-05 0.0  0.000128081 -6.03558e-06 0.0  9.17054e-05 1.40485e-05 0.0  6.19104e-05 3.97627e-05 0.0  0 1.20564e-06 0.0  0 1.20564e-06 0.0  
            </DataArray>
         </PointData> 
      </Piece>
   </UnstructuredGrid> 
</VTKFile>
