<?xml version="1.0"?>
<VTKFile type="UnstructuredGrid" version="0.1" byte_order="LittleEndian">
   <UnstructuredGrid>
      <Piece NumberOfPoints="63" NumberOfCells="0" > 
         <Points> 
            <DataArray type="Float64" Name="Position" NumberOfComponents="3" format="ascii"> 
               0.000473559  -0.000642344  0  
               0.000408535  -0.000685829  0  
               0.000339552  -0.000722713  0  
               0.000267278  -0.000752639  0  
               0.000192413  -0.000775316  0  
               0.000115682  -0.000790525  0  
               3.78268e-05  -0.00079812  0  
               -4.03976e-05  -0.000798026  0  
               -0.000118234  -0.000790244  0  
               -0.000194929  -0.00077485  0  
               -0.000269739  -0.000751992  0  
               -0.000341941  -0.000721893  0  
               -0.000410835  -0.000684843  0  
               -0.000475754  -0.000641202  0  
               -0.000536069  -0.000591391  0  
               0.000774734  -0.000193183  0  
               0.000755388  -0.000258717  0  
               0.000730494  -0.000322351  0  
               0.000700236  -0.000383617  0  
               0.000664838  -0.000442064  0  
               0.000624558  -0.00049726  0  
               0.000579695  -0.000548799  0  
               0.000530578  -0.000596303  0  
               0.000530559  0.000596286  0  
               0.000579641  0.000548755  0  
               0.000624478  0.000497201  0  
               0.000664741  0.000442002  0  
               0.000700137  0.000383561  0  
               0.000730405  0.000322307  0  
               0.000755323  0.000258689  0  
               0.00077471  0.000193173  0  
               -0.000536069  0.000591391  0  
               -0.000475754  0.000641202  0  
               -0.000410835  0.000684843  0  
               -0.000341941  0.000721893  0  
               -0.000269739  0.000751992  0  
               -0.000194929  0.00077485  0  
               -0.000118234  0.000790244  0  
               -4.03976e-05  0.000798026  0  
               3.78268e-05  0.00079812  0  
               0.000115682  0.000790525  0  
               0.000192413  0.000775316  0  
               0.000267278  0.000752639  0  
               0.000339552  0.000722713  0  
               0.000408535  0.000685829  0  
               0.000473559  0.000642344  0  
               -0.000593089  -0.000533975  0  
               -0.000645857  -0.000469149  0  
               -0.000691532  -0.000399145  0  
               -0.000729611  -0.000324735  0  
               -0.000759672  -0.00024674  0  
               -0.000781385  -0.000166022  0  
               -0.000794509  -8.34719e-05  0  
               -0.0007989  0  0  
               -0.000794509  8.34719e-05  0  
               -0.000781385  0.000166022  0  
               -0.000759672  0.00024674  0  
               -0.000729611  0.000324735  0  
               -0.000691532  0.000399145  0  
               -0.000645857  0.000469149  0  
               -0.000593089  0.000533975  0  
               0.0007915  -8e-05  0  
               0.0007915  8e-05  0  
            </DataArray>
         </Points> 

         <Cells>
            <DataArray type="Int32" Name="connectivity" NumberOfComponents="1" format="ascii">
               
            </DataArray> 
            <DataArray type="Int32" Name="offsets" NumberOfComponents="1" format="ascii">
               
            </DataArray>
            <DataArray type="UInt8"  Name="types" NumberOfComponents="1" format="ascii">
               
            </DataArray>
         </Cells>
         <PointData Scalars="Rank " Vectors="Displacement-Cylinder Force ">
            <DataArray type="UInt32" Name="Rank" NumberOfComponents="1" format="ascii">
               0 0 0 0 0 0 0 0 0 0 0 0 0 0 0 0 0 0 0 0 0 0 0 0 0 0 0 0 0 0 0 0 0 0 0 0 0 0 0 0 0 0 0 0 0 0 0 0 0 0 0 0 0 0 0 0 0 0 0 0 0 0 0 
            </DataArray>
            <DataArray type="Float64" Name="Displacement-Cylinder" NumberOfComponents="3" format="ascii">
               0 2.38119e-07 0.0  0 2.38119e-07 0.0  0 2.38119e-07 0.0  0 2.38119e-07 0.0  0 2.38119e-07 0.0  0 2.38119e-07 0.0  0 2.38119e-07 0.0  0 2.38119e-07 0.0  0 2.38119e-07 0.0  0 2.38119e-07 0.0  0 2.38119e-07 0.0  0 2.38119e-07 0.0  0 2.38119e-07 0.0  0 2.38119e-07 0.0  0 2.38119e-07 0.0  0 2.38119e-07 0.0  0 2.38119e-07 0.0  0 2.38119e-07 0.0  0 2.38119e-07 0.0  0 2.38119e-07 0.0  0 2.38119e-07 0.0  0 2.38119e-07 0.0  0 2.38119e-07 0.0  0 2.38119e-07 0.0  0 2.38119e-07 0.0  0 2.38119e-07 0.0  0 2.38119e-07 0.0  0 2.38119e-07 0.0  0 2.38119e-07 0.0  0 2.38119e-07 0.0  0 2.38119e-07 0.0  0 2.38119e-07 0.0  0 2.38119e-07 0.0  0 2.38119e-07 0.0  0 2.38119e-07 0.0  0 2.38119e-07 0.0  0 2.38119e-07 0.0  0 2.38119e-07 0.0  0 2.38119e-07 0.0  0 2.38119e-07 0.0  0 2.38119e-07 0.0  0 2.38119e-07 0.0  0 2.38119e-07 0.0  0 2.38119e-07 0.0  0 2.38119e-07 0.0  0 2.38119e-07 0.0  0 2.38119e-07 0.0  0 2.38119e-07 0.0  0 2.38119e-07 0.0  0 2.38119e-07 0.0  0 2.38119e-07 0.0  0 2.38119e-07 0.0  0 2.38119e-07 0.0  0 2.38119e-07 0.0  0 2.38119e-07 0.0  0 2.38119e-07 0.0  0 2.38119e-07 0.0  0 2.38119e-07 0.0  0 2.38119e-07 0.0  0 2.38119e-07 0.0  0 2.38119e-07 0.0  0 2.38119e-07 0.0  0 2.38119e-07 0.0  
            </DataArray>
            <DataArray type="Float64" Name="Force" NumberOfComponents="3" format="ascii">
               0.00014887 -1.79617e-05 0.0  0.000149583 1.92388e-05 0.0  4.26758e-05 -9.30838e-05 0.0  3.89191e-05 -0.000103581 0.0  3.50665e-05 -0.000114649 0.0  3.0877e-05 -0.000126495 0.0  2.58475e-05 -0.000137933 0.0  2.03045e-05 -0.000147419 0.0  1.42169e-05 -0.000153054 0.0  8.2973e-06 -0.000153006 0.0  4.11536e-06 -0.000146166 0.0  3.54534e-06 -0.00013207 0.0  8.10548e-06 -0.000111451 0.0  1.86511e-05 -8.65246e-05 0.0  3.53006e-05 -5.9994e-05 0.0  6.24474e-05 -1.79897e-05 0.0  6.15051e-05 -2.41523e-05 0.0  6.01856e-05 -3.01843e-05 0.0  5.83987e-05 -3.60337e-05 0.0  5.61539e-05 -4.174e-05 0.0  5.35108e-05 -4.73629e-05 0.0  5.05466e-05 -5.29838e-05 0.0  4.74199e-05 -5.87031e-05 0.0  4.81829e-05 5.95453e-05 0.0  5.13884e-05 5.38034e-05 0.0  5.4419e-05 4.8174e-05 0.0  5.70959e-05 4.25384e-05 0.0  5.93269e-05 3.68053e-05 0.0  6.10546e-05 3.0918e-05 0.0  6.22693e-05 2.48385e-05 0.0  6.30643e-05 1.86433e-05 0.0  3.40539e-05 6.17579e-05 0.0  1.74795e-05 8.84707e-05 0.0  7.0548e-06 0.00011352 0.0  2.64498e-06 0.000134187 0.0  3.38366e-06 0.000148243 0.0  7.73282e-06 0.000154966 0.0  1.37974e-05 0.000154852 0.0  2.00234e-05 0.000149029 0.0  2.56971e-05 0.000139382 0.0  3.08401e-05 0.000127834 0.0  3.51719e-05 0.000115916 0.0  3.91469e-05 0.000104792 0.0  4.30609e-05 9.42022e-05 0.0  4.7113e-05 8.44708e-05 0.0  5.13105e-05 7.54532e-05 0.0  6.39235e-05 -3.58194e-05 0.0  9.27645e-05 -1.20098e-05 0.0  0.000128301 6.68076e-06 0.0  0.00016306 1.84885e-05 0.0  0.00019528 2.25566e-05 0.0  0.000220914 1.9491e-05 0.0  0.000237448 1.10715e-05 0.0  0.000243055 2.02814e-07 0.0  0.000237142 -1.06372e-05 0.0  0.000220318 -1.89665e-05 0.0  0.000194425 -2.18749e-05 0.0  0.000161988 -1.76011e-05 0.0  0.000127074 -5.55468e-06 0.0  9.14362e-05 1.33936e-05 0.0  6.25875e-05 3.74563e-05 0.0  0 2.38119e-07 0.0  0 2.38119e-07 0.0  
            </DataArray>
         </PointData> 
      </Piece>
   </UnstructuredGrid> 
</VTKFile>
