<?xml version="1.0"?>
<VTKFile type="UnstructuredGrid" version="0.1" byte_order="LittleEndian">
   <UnstructuredGrid>
      <Piece NumberOfPoints="63" NumberOfCells="0" > 
         <Points> 
            <DataArray type="Float64" Name="Position" NumberOfComponents="3" format="ascii"> 
               0.000473559  -0.000642344  0  
               0.000408535  -0.000685829  0  
               0.000339552  -0.000722713  0  
               0.000267278  -0.000752639  0  
               0.000192413  -0.000775316  0  
               0.000115682  -0.000790525  0  
               3.78268e-05  -0.00079812  0  
               -4.03976e-05  -0.000798026  0  
               -0.000118234  -0.000790244  0  
               -0.000194929  -0.00077485  0  
               -0.000269739  -0.000751992  0  
               -0.000341941  -0.000721893  0  
               -0.000410835  -0.000684843  0  
               -0.000475754  -0.000641202  0  
               -0.000536069  -0.000591391  0  
               0.000774734  -0.000193183  0  
               0.000755388  -0.000258717  0  
               0.000730494  -0.000322351  0  
               0.000700236  -0.000383617  0  
               0.000664838  -0.000442064  0  
               0.000624558  -0.00049726  0  
               0.000579695  -0.000548799  0  
               0.000530578  -0.000596303  0  
               0.000530559  0.000596286  0  
               0.000579641  0.000548755  0  
               0.000624478  0.000497201  0  
               0.000664741  0.000442002  0  
               0.000700137  0.000383561  0  
               0.000730405  0.000322307  0  
               0.000755323  0.000258689  0  
               0.00077471  0.000193173  0  
               -0.000536069  0.000591391  0  
               -0.000475754  0.000641202  0  
               -0.000410835  0.000684843  0  
               -0.000341941  0.000721893  0  
               -0.000269739  0.000751992  0  
               -0.000194929  0.00077485  0  
               -0.000118234  0.000790244  0  
               -4.03976e-05  0.000798026  0  
               3.78268e-05  0.00079812  0  
               0.000115682  0.000790525  0  
               0.000192413  0.000775316  0  
               0.000267278  0.000752639  0  
               0.000339552  0.000722713  0  
               0.000408535  0.000685829  0  
               0.000473559  0.000642344  0  
               -0.000593089  -0.000533975  0  
               -0.000645857  -0.000469149  0  
               -0.000691532  -0.000399145  0  
               -0.000729611  -0.000324735  0  
               -0.000759672  -0.00024674  0  
               -0.000781385  -0.000166022  0  
               -0.000794509  -8.34719e-05  0  
               -0.0007989  0  0  
               -0.000794509  8.34719e-05  0  
               -0.000781385  0.000166022  0  
               -0.000759672  0.00024674  0  
               -0.000729611  0.000324735  0  
               -0.000691532  0.000399145  0  
               -0.000645857  0.000469149  0  
               -0.000593089  0.000533975  0  
               0.0007915  -8e-05  0  
               0.0007915  8e-05  0  
            </DataArray>
         </Points> 

         <Cells>
            <DataArray type="Int32" Name="connectivity" NumberOfComponents="1" format="ascii">
               
            </DataArray> 
            <DataArray type="Int32" Name="offsets" NumberOfComponents="1" format="ascii">
               
            </DataArray>
            <DataArray type="UInt8"  Name="types" NumberOfComponents="1" format="ascii">
               
            </DataArray>
         </Cells>
         <PointData Scalars="Rank " Vectors="Displacement-Cylinder Force ">
            <DataArray type="UInt32" Name="Rank" NumberOfComponents="1" format="ascii">
               0 0 0 0 0 0 0 0 0 0 0 0 0 0 0 0 0 0 0 0 0 0 0 0 0 0 0 0 0 0 0 0 0 0 0 0 0 0 0 0 0 0 0 0 0 0 0 0 0 0 0 0 0 0 0 0 0 0 0 0 0 0 0 
            </DataArray>
            <DataArray type="Float64" Name="Displacement-Cylinder" NumberOfComponents="3" format="ascii">
               0 1.64162e-06 0.0  0 1.64162e-06 0.0  0 1.64162e-06 0.0  0 1.64162e-06 0.0  0 1.64162e-06 0.0  0 1.64162e-06 0.0  0 1.64162e-06 0.0  0 1.64162e-06 0.0  0 1.64162e-06 0.0  0 1.64162e-06 0.0  0 1.64162e-06 0.0  0 1.64162e-06 0.0  0 1.64162e-06 0.0  0 1.64162e-06 0.0  0 1.64162e-06 0.0  0 1.64162e-06 0.0  0 1.64162e-06 0.0  0 1.64162e-06 0.0  0 1.64162e-06 0.0  0 1.64162e-06 0.0  0 1.64162e-06 0.0  0 1.64162e-06 0.0  0 1.64162e-06 0.0  0 1.64162e-06 0.0  0 1.64162e-06 0.0  0 1.64162e-06 0.0  0 1.64162e-06 0.0  0 1.64162e-06 0.0  0 1.64162e-06 0.0  0 1.64162e-06 0.0  0 1.64162e-06 0.0  0 1.64162e-06 0.0  0 1.64162e-06 0.0  0 1.64162e-06 0.0  0 1.64162e-06 0.0  0 1.64162e-06 0.0  0 1.64162e-06 0.0  0 1.64162e-06 0.0  0 1.64162e-06 0.0  0 1.64162e-06 0.0  0 1.64162e-06 0.0  0 1.64162e-06 0.0  0 1.64162e-06 0.0  0 1.64162e-06 0.0  0 1.64162e-06 0.0  0 1.64162e-06 0.0  0 1.64162e-06 0.0  0 1.64162e-06 0.0  0 1.64162e-06 0.0  0 1.64162e-06 0.0  0 1.64162e-06 0.0  0 1.64162e-06 0.0  0 1.64162e-06 0.0  0 1.64162e-06 0.0  0 1.64162e-06 0.0  0 1.64162e-06 0.0  0 1.64162e-06 0.0  0 1.64162e-06 0.0  0 1.64162e-06 0.0  0 1.64162e-06 0.0  0 1.64162e-06 0.0  0 1.64162e-06 0.0  0 1.64162e-06 0.0  
            </DataArray>
            <DataArray type="Float64" Name="Force" NumberOfComponents="3" format="ascii">
               0.000247769 -4.86773e-05 0.0  0.000220144 7.84417e-06 0.0  7.72749e-05 -0.000161606 0.0  6.8479e-05 -0.000176427 0.0  5.91719e-05 -0.000191654 0.0  4.88054e-05 -0.000206807 0.0  3.69332e-05 -0.000219949 0.0  2.45778e-05 -0.000229032 0.0  1.16906e-05 -0.000232068 0.0  -6.56129e-07 -0.000227578 0.0  -1.01757e-05 -0.000214498 0.0  -1.47885e-05 -0.000192887 0.0  -1.28702e-05 -0.000164006 0.0  -3.53027e-06 -0.000130548 0.0  1.29699e-05 -9.59721e-05 0.0  0.000110553 -3.81191e-05 0.0  0.00011182 -4.85522e-05 0.0  0.000111494 -5.8811e-05 0.0  0.000109413 -6.85491e-05 0.0  0.000105679 -7.78309e-05 0.0  0.000100726 -8.69306e-05 0.0  9.48641e-05 -9.60043e-05 0.0  8.86297e-05 -0.000105488 0.0  5.45051e-05 6.61569e-05 0.0  5.83983e-05 5.92444e-05 0.0  6.25298e-05 5.24471e-05 0.0  6.68291e-05 4.57087e-05 0.0  7.12981e-05 3.89417e-05 0.0  7.5917e-05 3.20708e-05 0.0  8.06472e-05 2.49036e-05 0.0  8.54802e-05 1.71228e-05 0.0  3.39823e-05 6.43229e-05 0.0  1.68943e-05 9.27778e-05 0.0  6.08203e-06 0.00011983 0.0  1.61165e-06 0.00014246 0.0  2.62466e-06 0.000158318 0.0  7.55693e-06 0.000166523 0.0  1.4458e-05 0.000167413 0.0  2.15803e-05 0.000162136 0.0  2.81427e-05 0.000152533 0.0  3.41994e-05 0.000140601 0.0  3.93102e-05 0.000128048 0.0  4.40676e-05 0.000116252 0.0  4.86837e-05 0.000105107 0.0  5.33086e-05 9.46218e-05 0.0  5.80602e-05 8.4424e-05 0.0  4.13704e-05 -6.65546e-05 0.0  7.20709e-05 -3.56294e-05 0.0  0.000110528 -1.08081e-05 0.0  0.000148649 6.02971e-06 0.0  0.000184413 1.40122e-05 0.0  0.000213474 1.37879e-05 0.0  0.000233087 7.21872e-06 0.0  0.000241265 -2.49833e-06 0.0  0.000237326 -1.26627e-05 0.0  0.00022184 -2.06391e-05 0.0  0.000196646 -2.33553e-05 0.0  0.000164349 -1.88078e-05 0.0  0.000129105 -6.24084e-06 0.0  9.28299e-05 1.35421e-05 0.0  6.31874e-05 3.88149e-05 0.0  0 1.64163e-06 0.0  0 1.64163e-06 0.0  
            </DataArray>
         </PointData> 
      </Piece>
   </UnstructuredGrid> 
</VTKFile>
