<?xml version="1.0"?>
<VTKFile type="UnstructuredGrid" version="0.1" byte_order="LittleEndian">
   <UnstructuredGrid>
      <Piece NumberOfPoints="63" NumberOfCells="0" > 
         <Points> 
            <DataArray type="Float64" Name="Position" NumberOfComponents="3" format="ascii"> 
               0.000473559  -0.000642344  0  
               0.000408535  -0.000685829  0  
               0.000339552  -0.000722713  0  
               0.000267278  -0.000752639  0  
               0.000192413  -0.000775316  0  
               0.000115682  -0.000790525  0  
               3.78268e-05  -0.00079812  0  
               -4.03976e-05  -0.000798026  0  
               -0.000118234  -0.000790244  0  
               -0.000194929  -0.00077485  0  
               -0.000269739  -0.000751992  0  
               -0.000341941  -0.000721893  0  
               -0.000410835  -0.000684843  0  
               -0.000475754  -0.000641202  0  
               -0.000536069  -0.000591391  0  
               0.000774734  -0.000193183  0  
               0.000755388  -0.000258717  0  
               0.000730494  -0.000322351  0  
               0.000700236  -0.000383617  0  
               0.000664838  -0.000442064  0  
               0.000624558  -0.00049726  0  
               0.000579695  -0.000548799  0  
               0.000530578  -0.000596303  0  
               0.000530559  0.000596286  0  
               0.000579641  0.000548755  0  
               0.000624478  0.000497201  0  
               0.000664741  0.000442002  0  
               0.000700137  0.000383561  0  
               0.000730405  0.000322307  0  
               0.000755323  0.000258689  0  
               0.00077471  0.000193173  0  
               -0.000536069  0.000591391  0  
               -0.000475754  0.000641202  0  
               -0.000410835  0.000684843  0  
               -0.000341941  0.000721893  0  
               -0.000269739  0.000751992  0  
               -0.000194929  0.00077485  0  
               -0.000118234  0.000790244  0  
               -4.03976e-05  0.000798026  0  
               3.78268e-05  0.00079812  0  
               0.000115682  0.000790525  0  
               0.000192413  0.000775316  0  
               0.000267278  0.000752639  0  
               0.000339552  0.000722713  0  
               0.000408535  0.000685829  0  
               0.000473559  0.000642344  0  
               -0.000593089  -0.000533975  0  
               -0.000645857  -0.000469149  0  
               -0.000691532  -0.000399145  0  
               -0.000729611  -0.000324735  0  
               -0.000759672  -0.00024674  0  
               -0.000781385  -0.000166022  0  
               -0.000794509  -8.34719e-05  0  
               -0.0007989  0  0  
               -0.000794509  8.34719e-05  0  
               -0.000781385  0.000166022  0  
               -0.000759672  0.00024674  0  
               -0.000729611  0.000324735  0  
               -0.000691532  0.000399145  0  
               -0.000645857  0.000469149  0  
               -0.000593089  0.000533975  0  
               0.0007915  -8e-05  0  
               0.0007915  8e-05  0  
            </DataArray>
         </Points> 

         <Cells>
            <DataArray type="Int32" Name="connectivity" NumberOfComponents="1" format="ascii">
               
            </DataArray> 
            <DataArray type="Int32" Name="offsets" NumberOfComponents="1" format="ascii">
               
            </DataArray>
            <DataArray type="UInt8"  Name="types" NumberOfComponents="1" format="ascii">
               
            </DataArray>
         </Cells>
         <PointData Scalars="Rank " Vectors="Displacement-Cylinder Force ">
            <DataArray type="UInt32" Name="Rank" NumberOfComponents="1" format="ascii">
               0 0 0 0 0 0 0 0 0 0 0 0 0 0 0 0 0 0 0 0 0 0 0 0 0 0 0 0 0 0 0 0 0 0 0 0 0 0 0 0 0 0 0 0 0 0 0 0 0 0 0 0 0 0 0 0 0 0 0 0 0 0 0 
            </DataArray>
            <DataArray type="Float64" Name="Displacement-Cylinder" NumberOfComponents="3" format="ascii">
               0 1.46037e-06 0.0  0 1.46037e-06 0.0  0 1.46037e-06 0.0  0 1.46037e-06 0.0  0 1.46037e-06 0.0  0 1.46037e-06 0.0  0 1.46037e-06 0.0  0 1.46037e-06 0.0  0 1.46037e-06 0.0  0 1.46037e-06 0.0  0 1.46037e-06 0.0  0 1.46037e-06 0.0  0 1.46037e-06 0.0  0 1.46037e-06 0.0  0 1.46037e-06 0.0  0 1.46037e-06 0.0  0 1.46037e-06 0.0  0 1.46037e-06 0.0  0 1.46037e-06 0.0  0 1.46037e-06 0.0  0 1.46037e-06 0.0  0 1.46037e-06 0.0  0 1.46037e-06 0.0  0 1.46037e-06 0.0  0 1.46037e-06 0.0  0 1.46037e-06 0.0  0 1.46037e-06 0.0  0 1.46037e-06 0.0  0 1.46037e-06 0.0  0 1.46037e-06 0.0  0 1.46037e-06 0.0  0 1.46037e-06 0.0  0 1.46037e-06 0.0  0 1.46037e-06 0.0  0 1.46037e-06 0.0  0 1.46037e-06 0.0  0 1.46037e-06 0.0  0 1.46037e-06 0.0  0 1.46037e-06 0.0  0 1.46037e-06 0.0  0 1.46037e-06 0.0  0 1.46037e-06 0.0  0 1.46037e-06 0.0  0 1.46037e-06 0.0  0 1.46037e-06 0.0  0 1.46037e-06 0.0  0 1.46037e-06 0.0  0 1.46037e-06 0.0  0 1.46037e-06 0.0  0 1.46037e-06 0.0  0 1.46037e-06 0.0  0 1.46037e-06 0.0  0 1.46037e-06 0.0  0 1.46037e-06 0.0  0 1.46037e-06 0.0  0 1.46037e-06 0.0  0 1.46037e-06 0.0  0 1.46037e-06 0.0  0 1.46037e-06 0.0  0 1.46037e-06 0.0  0 1.46037e-06 0.0  0 1.46037e-06 0.0  0 1.46037e-06 0.0  
            </DataArray>
            <DataArray type="Float64" Name="Force" NumberOfComponents="3" format="ascii">
               0.000230644 -8.27122e-06 0.0  0.000239894 4.57599e-05 0.0  6.61267e-05 -0.000137545 0.0  5.84934e-05 -0.00014987 0.0  5.06264e-05 -0.000162603 0.0  4.21071e-05 -0.000175351 0.0  3.25438e-05 -0.000186626 0.0  2.27902e-05 -0.00019459 0.0  1.27246e-05 -0.000197444 0.0  3.23034e-06 -0.00019374 0.0  -3.70586e-06 -0.000182377 0.0  -6.17244e-06 -0.000163247 0.0  -2.64793e-06 -0.000137405 0.0  7.70785e-06 -0.000107277 0.0  2.46861e-05 -7.60493e-05 0.0  9.51115e-05 -1.98539e-05 0.0  9.31965e-05 -3.02689e-05 0.0  9.11922e-05 -4.07399e-05 0.0  8.91119e-05 -5.12104e-05 0.0  8.67268e-05 -6.14908e-05 0.0  8.37697e-05 -7.14045e-05 0.0  7.99846e-05 -8.0782e-05 0.0  7.55455e-05 -8.99138e-05 0.0  6.83427e-05 8.27916e-05 0.0  7.3703e-05 7.51916e-05 0.0  7.92989e-05 6.80389e-05 0.0  8.48536e-05 6.12784e-05 0.0  9.00134e-05 5.46369e-05 0.0  9.44614e-05 4.78644e-05 0.0  9.79478e-05 4.06745e-05 0.0  0.000100528 3.32305e-05 0.0  2.12636e-05 8.53601e-05 0.0  4.79466e-06 0.000117253 0.0  -4.90505e-06 0.000147772 0.0  -7.64657e-06 0.000173509 0.0  -4.35193e-06 0.000191888 0.0  3.30644e-06 0.000201808 0.0  1.32073e-05 0.000203457 0.0  2.32745e-05 0.00019798 0.0  3.25499e-05 0.000187232 0.0  4.10568e-05 0.000173383 0.0  4.81704e-05 0.000158445 0.0  5.44925e-05 0.000144176 0.0  6.04471e-05 0.000130495 0.0  6.62286e-05 0.000117422 0.0  7.23332e-05 0.000104833 0.0  5.35573e-05 -4.87618e-05 0.0  8.38325e-05 -2.10419e-05 0.0  0.000121026 8.39733e-07 0.0  0.000157464 1.51553e-05 0.0  0.000191115 2.1089e-05 0.0  0.000217806 1.93874e-05 0.0  0.000234869 1.20423e-05 0.0  0.000240433 2.14462e-06 0.0  0.000233894 -7.6672e-06 0.0  0.000215892 -1.46993e-05 0.0  0.000188378 -1.5775e-05 0.0  0.000154042 -9.0204e-06 0.0  0.000117194 6.21969e-06 0.0  7.97565e-05 2.90798e-05 0.0  4.98173e-05 5.76871e-05 0.0  0 1.46037e-06 0.0  0 1.46037e-06 0.0  
            </DataArray>
         </PointData> 
      </Piece>
   </UnstructuredGrid> 
</VTKFile>
