<?xml version="1.0"?>
<VTKFile type="UnstructuredGrid" version="0.1" byte_order="LittleEndian">
   <UnstructuredGrid>
      <Piece NumberOfPoints="63" NumberOfCells="0" > 
         <Points> 
            <DataArray type="Float64" Name="Position" NumberOfComponents="3" format="ascii"> 
               0.000473559  -0.000642344  0  
               0.000408535  -0.000685829  0  
               0.000339552  -0.000722713  0  
               0.000267278  -0.000752639  0  
               0.000192413  -0.000775316  0  
               0.000115682  -0.000790525  0  
               3.78268e-05  -0.00079812  0  
               -4.03976e-05  -0.000798026  0  
               -0.000118234  -0.000790244  0  
               -0.000194929  -0.00077485  0  
               -0.000269739  -0.000751992  0  
               -0.000341941  -0.000721893  0  
               -0.000410835  -0.000684843  0  
               -0.000475754  -0.000641202  0  
               -0.000536069  -0.000591391  0  
               0.000774734  -0.000193183  0  
               0.000755388  -0.000258717  0  
               0.000730494  -0.000322351  0  
               0.000700236  -0.000383617  0  
               0.000664838  -0.000442064  0  
               0.000624558  -0.00049726  0  
               0.000579695  -0.000548799  0  
               0.000530578  -0.000596303  0  
               0.000530559  0.000596286  0  
               0.000579641  0.000548755  0  
               0.000624478  0.000497201  0  
               0.000664741  0.000442002  0  
               0.000700137  0.000383561  0  
               0.000730405  0.000322307  0  
               0.000755323  0.000258689  0  
               0.00077471  0.000193173  0  
               -0.000536069  0.000591391  0  
               -0.000475754  0.000641202  0  
               -0.000410835  0.000684843  0  
               -0.000341941  0.000721893  0  
               -0.000269739  0.000751992  0  
               -0.000194929  0.00077485  0  
               -0.000118234  0.000790244  0  
               -4.03976e-05  0.000798026  0  
               3.78268e-05  0.00079812  0  
               0.000115682  0.000790525  0  
               0.000192413  0.000775316  0  
               0.000267278  0.000752639  0  
               0.000339552  0.000722713  0  
               0.000408535  0.000685829  0  
               0.000473559  0.000642344  0  
               -0.000593089  -0.000533975  0  
               -0.000645857  -0.000469149  0  
               -0.000691532  -0.000399145  0  
               -0.000729611  -0.000324735  0  
               -0.000759672  -0.00024674  0  
               -0.000781385  -0.000166022  0  
               -0.000794509  -8.34719e-05  0  
               -0.0007989  0  0  
               -0.000794509  8.34719e-05  0  
               -0.000781385  0.000166022  0  
               -0.000759672  0.00024674  0  
               -0.000729611  0.000324735  0  
               -0.000691532  0.000399145  0  
               -0.000645857  0.000469149  0  
               -0.000593089  0.000533975  0  
               0.0007915  -8e-05  0  
               0.0007915  8e-05  0  
            </DataArray>
         </Points> 

         <Cells>
            <DataArray type="Int32" Name="connectivity" NumberOfComponents="1" format="ascii">
               
            </DataArray> 
            <DataArray type="Int32" Name="offsets" NumberOfComponents="1" format="ascii">
               
            </DataArray>
            <DataArray type="UInt8"  Name="types" NumberOfComponents="1" format="ascii">
               
            </DataArray>
         </Cells>
         <PointData Scalars="Rank " Vectors="Displacement-Cylinder Force ">
            <DataArray type="UInt32" Name="Rank" NumberOfComponents="1" format="ascii">
               0 0 0 0 0 0 0 0 0 0 0 0 0 0 0 0 0 0 0 0 0 0 0 0 0 0 0 0 0 0 0 0 0 0 0 0 0 0 0 0 0 0 0 0 0 0 0 0 0 0 0 0 0 0 0 0 0 0 0 0 0 0 0 
            </DataArray>
            <DataArray type="Float64" Name="Displacement-Cylinder" NumberOfComponents="3" format="ascii">
               0 3.65998e-07 0.0  0 3.65998e-07 0.0  0 3.65998e-07 0.0  0 3.65998e-07 0.0  0 3.65998e-07 0.0  0 3.65998e-07 0.0  0 3.65998e-07 0.0  0 3.65998e-07 0.0  0 3.65998e-07 0.0  0 3.65998e-07 0.0  0 3.65998e-07 0.0  0 3.65998e-07 0.0  0 3.65998e-07 0.0  0 3.65998e-07 0.0  0 3.65998e-07 0.0  0 3.65998e-07 0.0  0 3.65998e-07 0.0  0 3.65998e-07 0.0  0 3.65998e-07 0.0  0 3.65998e-07 0.0  0 3.65998e-07 0.0  0 3.65998e-07 0.0  0 3.65998e-07 0.0  0 3.65998e-07 0.0  0 3.65998e-07 0.0  0 3.65998e-07 0.0  0 3.65998e-07 0.0  0 3.65998e-07 0.0  0 3.65998e-07 0.0  0 3.65998e-07 0.0  0 3.65998e-07 0.0  0 3.65998e-07 0.0  0 3.65998e-07 0.0  0 3.65998e-07 0.0  0 3.65998e-07 0.0  0 3.65998e-07 0.0  0 3.65998e-07 0.0  0 3.65998e-07 0.0  0 3.65998e-07 0.0  0 3.65998e-07 0.0  0 3.65998e-07 0.0  0 3.65998e-07 0.0  0 3.65998e-07 0.0  0 3.65998e-07 0.0  0 3.65998e-07 0.0  0 3.65998e-07 0.0  0 3.65998e-07 0.0  0 3.65998e-07 0.0  0 3.65998e-07 0.0  0 3.65998e-07 0.0  0 3.65998e-07 0.0  0 3.65998e-07 0.0  0 3.65998e-07 0.0  0 3.65998e-07 0.0  0 3.65998e-07 0.0  0 3.65998e-07 0.0  0 3.65998e-07 0.0  0 3.65998e-07 0.0  0 3.65998e-07 0.0  0 3.65998e-07 0.0  0 3.65998e-07 0.0  0 3.65998e-07 0.0  0 3.65998e-07 0.0  
            </DataArray>
            <DataArray type="Float64" Name="Force" NumberOfComponents="3" format="ascii">
               0.000145752 -1.93046e-05 0.0  0.000143985 1.63291e-05 0.0  4.2394e-05 -9.24801e-05 0.0  3.85187e-05 -0.000102752 0.0  3.45596e-05 -0.000113551 0.0  3.02768e-05 -0.000125098 0.0  2.52008e-05 -0.000136259 0.0  1.96352e-05 -0.000145563 0.0  1.35491e-05 -0.000151169 0.0  7.62889e-06 -0.000151273 0.0  3.37722e-06 -0.000144779 0.0  2.62542e-06 -0.00013119 0.0  6.8658e-06 -0.000111182 0.0  1.69461e-05 -8.69139e-05 0.0  3.30519e-05 -6.09569e-05 0.0  6.16237e-05 -1.8321e-05 0.0  6.09321e-05 -2.4415e-05 0.0  5.98233e-05 -3.04293e-05 0.0  5.821e-05 -3.62698e-05 0.0  5.60954e-05 -4.19559e-05 0.0  5.35328e-05 -4.75298e-05 0.0  5.05955e-05 -5.30679e-05 0.0  4.74382e-05 -5.86769e-05 0.0  4.50279e-05 5.57937e-05 0.0  4.79836e-05 5.02984e-05 0.0  5.08138e-05 4.49177e-05 0.0  5.33581e-05 3.95205e-05 0.0  5.55644e-05 3.4045e-05 0.0  5.73897e-05 2.84449e-05 0.0  5.88333e-05 2.26955e-05 0.0  5.99624e-05 1.68306e-05 0.0  3.42606e-05 5.9056e-05 0.0  1.81064e-05 8.4629e-05 0.0  7.9321e-06 0.000108455 0.0  3.52898e-06 0.000127991 0.0  4.04555e-06 0.000141101 0.0  7.98555e-06 0.000147146 0.0  1.35207e-05 0.000146679 0.0  1.92066e-05 0.000140818 0.0  2.43728e-05 0.000131425 0.0  2.90505e-05 0.00012034 0.0  3.30146e-05 0.000109011 0.0  3.66498e-05 9.84627e-05 0.0  4.02921e-05 8.84494e-05 0.0  4.40816e-05 7.9257e-05 0.0  4.79874e-05 7.07867e-05 0.0  6.08314e-05 -3.73052e-05 0.0  8.89035e-05 -1.38093e-05 0.0  0.000123651 4.7486e-06 0.0  0.000157709 1.66128e-05 0.0  0.000189371 2.09152e-05 0.0  0.000214649 1.82206e-05 0.0  0.000231075 1.02441e-05 0.0  0.000236835 -1.77629e-07 0.0  0.000231334 -1.06255e-05 0.0  0.00021516 -1.86842e-05 0.0  0.000190111 -2.15248e-05 0.0  0.00015865 -1.74216e-05 0.0  0.000124754 -5.80167e-06 0.0  9.01187e-05 1.24697e-05 0.0  6.20952e-05 3.56381e-05 0.0  0 3.66003e-07 0.0  0 3.66003e-07 0.0  
            </DataArray>
         </PointData> 
      </Piece>
   </UnstructuredGrid> 
</VTKFile>
