<?xml version="1.0"?>
<VTKFile type="UnstructuredGrid" version="0.1" byte_order="LittleEndian">
   <UnstructuredGrid>
      <Piece NumberOfPoints="63" NumberOfCells="0" > 
         <Points> 
            <DataArray type="Float64" Name="Position" NumberOfComponents="3" format="ascii"> 
               0.000473559  -0.000642344  0  
               0.000408535  -0.000685829  0  
               0.000339552  -0.000722713  0  
               0.000267278  -0.000752639  0  
               0.000192413  -0.000775316  0  
               0.000115682  -0.000790525  0  
               3.78268e-05  -0.00079812  0  
               -4.03976e-05  -0.000798026  0  
               -0.000118234  -0.000790244  0  
               -0.000194929  -0.00077485  0  
               -0.000269739  -0.000751992  0  
               -0.000341941  -0.000721893  0  
               -0.000410835  -0.000684843  0  
               -0.000475754  -0.000641202  0  
               -0.000536069  -0.000591391  0  
               0.000774734  -0.000193183  0  
               0.000755388  -0.000258717  0  
               0.000730494  -0.000322351  0  
               0.000700236  -0.000383617  0  
               0.000664838  -0.000442064  0  
               0.000624558  -0.00049726  0  
               0.000579695  -0.000548799  0  
               0.000530578  -0.000596303  0  
               0.000530559  0.000596286  0  
               0.000579641  0.000548755  0  
               0.000624478  0.000497201  0  
               0.000664741  0.000442002  0  
               0.000700137  0.000383561  0  
               0.000730405  0.000322307  0  
               0.000755323  0.000258689  0  
               0.00077471  0.000193173  0  
               -0.000536069  0.000591391  0  
               -0.000475754  0.000641202  0  
               -0.000410835  0.000684843  0  
               -0.000341941  0.000721893  0  
               -0.000269739  0.000751992  0  
               -0.000194929  0.00077485  0  
               -0.000118234  0.000790244  0  
               -4.03976e-05  0.000798026  0  
               3.78268e-05  0.00079812  0  
               0.000115682  0.000790525  0  
               0.000192413  0.000775316  0  
               0.000267278  0.000752639  0  
               0.000339552  0.000722713  0  
               0.000408535  0.000685829  0  
               0.000473559  0.000642344  0  
               -0.000593089  -0.000533975  0  
               -0.000645857  -0.000469149  0  
               -0.000691532  -0.000399145  0  
               -0.000729611  -0.000324735  0  
               -0.000759672  -0.00024674  0  
               -0.000781385  -0.000166022  0  
               -0.000794509  -8.34719e-05  0  
               -0.0007989  0  0  
               -0.000794509  8.34719e-05  0  
               -0.000781385  0.000166022  0  
               -0.000759672  0.00024674  0  
               -0.000729611  0.000324735  0  
               -0.000691532  0.000399145  0  
               -0.000645857  0.000469149  0  
               -0.000593089  0.000533975  0  
               0.0007915  -8e-05  0  
               0.0007915  8e-05  0  
            </DataArray>
         </Points> 

         <Cells>
            <DataArray type="Int32" Name="connectivity" NumberOfComponents="1" format="ascii">
               
            </DataArray> 
            <DataArray type="Int32" Name="offsets" NumberOfComponents="1" format="ascii">
               
            </DataArray>
            <DataArray type="UInt8"  Name="types" NumberOfComponents="1" format="ascii">
               
            </DataArray>
         </Cells>
         <PointData Scalars="Rank " Vectors="Displacement-Cylinder Force ">
            <DataArray type="UInt32" Name="Rank" NumberOfComponents="1" format="ascii">
               0 0 0 0 0 0 0 0 0 0 0 0 0 0 0 0 0 0 0 0 0 0 0 0 0 0 0 0 0 0 0 0 0 0 0 0 0 0 0 0 0 0 0 0 0 0 0 0 0 0 0 0 0 0 0 0 0 0 0 0 0 0 0 
            </DataArray>
            <DataArray type="Float64" Name="Displacement-Cylinder" NumberOfComponents="3" format="ascii">
               0 8.5761e-07 0.0  0 8.5761e-07 0.0  0 8.5761e-07 0.0  0 8.5761e-07 0.0  0 8.5761e-07 0.0  0 8.5761e-07 0.0  0 8.5761e-07 0.0  0 8.5761e-07 0.0  0 8.5761e-07 0.0  0 8.5761e-07 0.0  0 8.5761e-07 0.0  0 8.5761e-07 0.0  0 8.5761e-07 0.0  0 8.5761e-07 0.0  0 8.5761e-07 0.0  0 8.5761e-07 0.0  0 8.5761e-07 0.0  0 8.5761e-07 0.0  0 8.5761e-07 0.0  0 8.5761e-07 0.0  0 8.5761e-07 0.0  0 8.5761e-07 0.0  0 8.5761e-07 0.0  0 8.5761e-07 0.0  0 8.5761e-07 0.0  0 8.5761e-07 0.0  0 8.5761e-07 0.0  0 8.5761e-07 0.0  0 8.5761e-07 0.0  0 8.5761e-07 0.0  0 8.5761e-07 0.0  0 8.5761e-07 0.0  0 8.5761e-07 0.0  0 8.5761e-07 0.0  0 8.5761e-07 0.0  0 8.5761e-07 0.0  0 8.5761e-07 0.0  0 8.5761e-07 0.0  0 8.5761e-07 0.0  0 8.5761e-07 0.0  0 8.5761e-07 0.0  0 8.5761e-07 0.0  0 8.5761e-07 0.0  0 8.5761e-07 0.0  0 8.5761e-07 0.0  0 8.5761e-07 0.0  0 8.5761e-07 0.0  0 8.5761e-07 0.0  0 8.5761e-07 0.0  0 8.5761e-07 0.0  0 8.5761e-07 0.0  0 8.5761e-07 0.0  0 8.5761e-07 0.0  0 8.5761e-07 0.0  0 8.5761e-07 0.0  0 8.5761e-07 0.0  0 8.5761e-07 0.0  0 8.5761e-07 0.0  0 8.5761e-07 0.0  0 8.5761e-07 0.0  0 8.5761e-07 0.0  0 8.5761e-07 0.0  0 8.5761e-07 0.0  
            </DataArray>
            <DataArray type="Float64" Name="Force" NumberOfComponents="3" format="ascii">
               0.000216737 -1.86433e-05 0.0  0.000235685 3.67826e-05 0.0  4.98685e-05 -0.000108592 0.0  4.51544e-05 -0.000120462 0.0  4.02487e-05 -0.000132883 0.0  3.48668e-05 -0.000146026 0.0  2.8431e-05 -0.000158565 0.0  2.13379e-05 -0.000168733 0.0  1.35827e-05 -0.000174483 0.0  5.98173e-06 -0.000173904 0.0  2.9516e-07 -0.000165865 0.0  -1.47819e-06 -0.000150011 0.0  2.26522e-06 -0.000127217 0.0  1.24124e-05 -9.98534e-05 0.0  2.89386e-05 -7.09461e-05 0.0  8.604e-05 -2.12122e-05 0.0  8.208e-05 -2.85735e-05 0.0  7.80601e-05 -3.54475e-05 0.0  7.36992e-05 -4.19183e-05 0.0  6.91265e-05 -4.82246e-05 0.0  6.45358e-05 -5.46318e-05 0.0  6.00923e-05 -6.12882e-05 0.0  5.59511e-05 -6.82518e-05 0.0  8.76591e-05 0.00010398 0.0  9.35138e-05 9.46155e-05 0.0  9.87298e-05 8.53869e-05 0.0  0.000102769 7.58248e-05 0.0  0.000105443 6.58365e-05 0.0  0.000106583 5.53337e-05 0.0  0.000106203 4.43898e-05 0.0  0.000104662 3.33949e-05 0.0  1.5492e-05 9.09078e-05 0.0  -1.02117e-06 0.000124635 0.0  -1.05867e-05 0.000157336 0.0  -1.28957e-05 0.000185556 0.0  -8.81611e-06 0.000206705 0.0  7.44556e-08 0.000219564 0.0  1.17651e-05 0.000224106 0.0  2.40504e-05 0.000221426 0.0  3.59222e-05 0.000212948 0.0  4.74531e-05 0.000200585 0.0  5.76647e-05 0.000186333 0.0  6.69731e-05 0.000171958 0.0  7.58921e-05 0.000157949 0.0  8.45461e-05 0.00014416 0.0  9.29329e-05 0.000130483 0.0  5.74021e-05 -4.52445e-05 0.0  8.66563e-05 -1.92497e-05 0.0  0.000122856 1.35516e-06 0.0  0.000158236 1.47691e-05 0.0  0.000190929 2.01427e-05 0.0  0.000216727 1.81603e-05 0.0  0.00023301 1.07436e-05 0.0  0.000237882 9.61036e-07 0.0  0.000230731 -8.55816e-06 0.0  0.000212188 -1.51503e-05 0.0  0.000184169 -1.5659e-05 0.0  0.000149366 -8.17543e-06 0.0  0.000112043 7.99567e-06 0.0  7.42162e-05 3.2027e-05 0.0  4.37926e-05 6.21066e-05 0.0  0 8.57605e-07 0.0  0 8.57605e-07 0.0  
            </DataArray>
         </PointData> 
      </Piece>
   </UnstructuredGrid> 
</VTKFile>
