<?xml version="1.0"?>
<VTKFile type="UnstructuredGrid" version="0.1" byte_order="LittleEndian">
   <UnstructuredGrid>
      <Piece NumberOfPoints="63" NumberOfCells="0" > 
         <Points> 
            <DataArray type="Float64" Name="Position" NumberOfComponents="3" format="ascii"> 
               0.000473559  -0.000642344  0  
               0.000408535  -0.000685829  0  
               0.000339552  -0.000722713  0  
               0.000267278  -0.000752639  0  
               0.000192413  -0.000775316  0  
               0.000115682  -0.000790525  0  
               3.78268e-05  -0.00079812  0  
               -4.03976e-05  -0.000798026  0  
               -0.000118234  -0.000790244  0  
               -0.000194929  -0.00077485  0  
               -0.000269739  -0.000751992  0  
               -0.000341941  -0.000721893  0  
               -0.000410835  -0.000684843  0  
               -0.000475754  -0.000641202  0  
               -0.000536069  -0.000591391  0  
               0.000774734  -0.000193183  0  
               0.000755388  -0.000258717  0  
               0.000730494  -0.000322351  0  
               0.000700236  -0.000383617  0  
               0.000664838  -0.000442064  0  
               0.000624558  -0.00049726  0  
               0.000579695  -0.000548799  0  
               0.000530578  -0.000596303  0  
               0.000530559  0.000596286  0  
               0.000579641  0.000548755  0  
               0.000624478  0.000497201  0  
               0.000664741  0.000442002  0  
               0.000700137  0.000383561  0  
               0.000730405  0.000322307  0  
               0.000755323  0.000258689  0  
               0.00077471  0.000193173  0  
               -0.000536069  0.000591391  0  
               -0.000475754  0.000641202  0  
               -0.000410835  0.000684843  0  
               -0.000341941  0.000721893  0  
               -0.000269739  0.000751992  0  
               -0.000194929  0.00077485  0  
               -0.000118234  0.000790244  0  
               -4.03976e-05  0.000798026  0  
               3.78268e-05  0.00079812  0  
               0.000115682  0.000790525  0  
               0.000192413  0.000775316  0  
               0.000267278  0.000752639  0  
               0.000339552  0.000722713  0  
               0.000408535  0.000685829  0  
               0.000473559  0.000642344  0  
               -0.000593089  -0.000533975  0  
               -0.000645857  -0.000469149  0  
               -0.000691532  -0.000399145  0  
               -0.000729611  -0.000324735  0  
               -0.000759672  -0.00024674  0  
               -0.000781385  -0.000166022  0  
               -0.000794509  -8.34719e-05  0  
               -0.0007989  0  0  
               -0.000794509  8.34719e-05  0  
               -0.000781385  0.000166022  0  
               -0.000759672  0.00024674  0  
               -0.000729611  0.000324735  0  
               -0.000691532  0.000399145  0  
               -0.000645857  0.000469149  0  
               -0.000593089  0.000533975  0  
               0.0007915  -8e-05  0  
               0.0007915  8e-05  0  
            </DataArray>
         </Points> 

         <Cells>
            <DataArray type="Int32" Name="connectivity" NumberOfComponents="1" format="ascii">
               
            </DataArray> 
            <DataArray type="Int32" Name="offsets" NumberOfComponents="1" format="ascii">
               
            </DataArray>
            <DataArray type="UInt8"  Name="types" NumberOfComponents="1" format="ascii">
               
            </DataArray>
         </Cells>
         <PointData Scalars="Rank " Vectors="Displacement-Cylinder Force ">
            <DataArray type="UInt32" Name="Rank" NumberOfComponents="1" format="ascii">
               0 0 0 0 0 0 0 0 0 0 0 0 0 0 0 0 0 0 0 0 0 0 0 0 0 0 0 0 0 0 0 0 0 0 0 0 0 0 0 0 0 0 0 0 0 0 0 0 0 0 0 0 0 0 0 0 0 0 0 0 0 0 0 
            </DataArray>
            <DataArray type="Float64" Name="Displacement-Cylinder" NumberOfComponents="3" format="ascii">
               0 1.07261e-06 0.0  0 1.07261e-06 0.0  0 1.07261e-06 0.0  0 1.07261e-06 0.0  0 1.07261e-06 0.0  0 1.07261e-06 0.0  0 1.07261e-06 0.0  0 1.07261e-06 0.0  0 1.07261e-06 0.0  0 1.07261e-06 0.0  0 1.07261e-06 0.0  0 1.07261e-06 0.0  0 1.07261e-06 0.0  0 1.07261e-06 0.0  0 1.07261e-06 0.0  0 1.07261e-06 0.0  0 1.07261e-06 0.0  0 1.07261e-06 0.0  0 1.07261e-06 0.0  0 1.07261e-06 0.0  0 1.07261e-06 0.0  0 1.07261e-06 0.0  0 1.07261e-06 0.0  0 1.07261e-06 0.0  0 1.07261e-06 0.0  0 1.07261e-06 0.0  0 1.07261e-06 0.0  0 1.07261e-06 0.0  0 1.07261e-06 0.0  0 1.07261e-06 0.0  0 1.07261e-06 0.0  0 1.07261e-06 0.0  0 1.07261e-06 0.0  0 1.07261e-06 0.0  0 1.07261e-06 0.0  0 1.07261e-06 0.0  0 1.07261e-06 0.0  0 1.07261e-06 0.0  0 1.07261e-06 0.0  0 1.07261e-06 0.0  0 1.07261e-06 0.0  0 1.07261e-06 0.0  0 1.07261e-06 0.0  0 1.07261e-06 0.0  0 1.07261e-06 0.0  0 1.07261e-06 0.0  0 1.07261e-06 0.0  0 1.07261e-06 0.0  0 1.07261e-06 0.0  0 1.07261e-06 0.0  0 1.07261e-06 0.0  0 1.07261e-06 0.0  0 1.07261e-06 0.0  0 1.07261e-06 0.0  0 1.07261e-06 0.0  0 1.07261e-06 0.0  0 1.07261e-06 0.0  0 1.07261e-06 0.0  0 1.07261e-06 0.0  0 1.07261e-06 0.0  0 1.07261e-06 0.0  0 1.07261e-06 0.0  0 1.07261e-06 0.0  
            </DataArray>
            <DataArray type="Float64" Name="Force" NumberOfComponents="3" format="ascii">
               0.000235031 -3.74468e-05 0.0  0.00021472 1.79991e-05 0.0  7.68824e-05 -0.000159561 0.0  6.79047e-05 -0.000173708 0.0  5.85048e-05 -0.000188237 0.0  4.81601e-05 -0.000202553 0.0  3.64663e-05 -0.000214901 0.0  2.44206e-05 -0.000223271 0.0  1.1972e-05 -0.000225758 0.0  1.41657e-07 -0.000220984 0.0  -8.84084e-06 -0.00020788 0.0  -1.29663e-05 -0.000186497 0.0  -1.0661e-05 -0.000158064 0.0  -1.05982e-06 -0.000125186 0.0  1.55369e-05 -9.12969e-05 0.0  0.000104903 -3.37665e-05 0.0  0.00010671 -4.48988e-05 0.0  0.000107297 -5.59721e-05 0.0  0.00010631 -6.65922e-05 0.0  0.000103707 -7.66739e-05 0.0  9.96593e-05 -8.62999e-05 0.0  9.44058e-05 -9.56042e-05 0.0  8.85108e-05 -0.000105083 0.0  5.48284e-05 6.69757e-05 0.0  5.88592e-05 6.00855e-05 0.0  6.32347e-05 5.35356e-05 0.0  6.78007e-05 4.72685e-05 0.0  7.23742e-05 4.11211e-05 0.0  7.67428e-05 3.4797e-05 0.0  8.08376e-05 2.80854e-05 0.0  8.49195e-05 2.08757e-05 0.0  3.0315e-05 6.97039e-05 0.0  1.35725e-05 9.86793e-05 0.0  3.20874e-06 0.000126137 0.0  -7.27626e-07 0.000149001 0.0  8.75649e-07 0.000164881 0.0  6.40467e-06 0.000172888 0.0  1.38442e-05 0.000173377 0.0  2.14288e-05 0.000167492 0.0  2.83368e-05 0.000157184 0.0  3.45658e-05 0.000144537 0.0  3.97513e-05 0.000131323 0.0  4.44466e-05 0.000118877 0.0  4.89774e-05 0.000106982 0.0  5.35301e-05 9.59033e-05 0.0  5.82748e-05 8.54051e-05 0.0  4.39853e-05 -6.23601e-05 0.0  7.45696e-05 -3.21614e-05 0.0  0.000112623 -8.03576e-06 0.0  0.000150207 8.19435e-06 0.0  0.000185297 1.56926e-05 0.0  0.000213605 1.5145e-05 0.0  0.000232422 8.45325e-06 0.0  0.00023981 -1.21239e-06 0.0  0.000235121 -1.11755e-05 0.0  0.000218955 -1.87955e-05 0.0  0.000193192 -2.09902e-05 0.0  0.000160459 -1.5811e-05 0.0  0.000124958 -2.55075e-06 0.0  8.85767e-05 1.79543e-05 0.0  5.90909e-05 4.39107e-05 0.0  0 1.07261e-06 0.0  0 1.07261e-06 0.0  
            </DataArray>
         </PointData> 
      </Piece>
   </UnstructuredGrid> 
</VTKFile>
