<?xml version="1.0"?>
<VTKFile type="UnstructuredGrid" version="0.1" byte_order="LittleEndian">
   <UnstructuredGrid>
      <Piece NumberOfPoints="63" NumberOfCells="0" > 
         <Points> 
            <DataArray type="Float64" Name="Position" NumberOfComponents="3" format="ascii"> 
               0.000473559  -0.000642344  0  
               0.000408535  -0.000685829  0  
               0.000339552  -0.000722713  0  
               0.000267278  -0.000752639  0  
               0.000192413  -0.000775316  0  
               0.000115682  -0.000790525  0  
               3.78268e-05  -0.00079812  0  
               -4.03976e-05  -0.000798026  0  
               -0.000118234  -0.000790244  0  
               -0.000194929  -0.00077485  0  
               -0.000269739  -0.000751992  0  
               -0.000341941  -0.000721893  0  
               -0.000410835  -0.000684843  0  
               -0.000475754  -0.000641202  0  
               -0.000536069  -0.000591391  0  
               0.000774734  -0.000193183  0  
               0.000755388  -0.000258717  0  
               0.000730494  -0.000322351  0  
               0.000700236  -0.000383617  0  
               0.000664838  -0.000442064  0  
               0.000624558  -0.00049726  0  
               0.000579695  -0.000548799  0  
               0.000530578  -0.000596303  0  
               0.000530559  0.000596286  0  
               0.000579641  0.000548755  0  
               0.000624478  0.000497201  0  
               0.000664741  0.000442002  0  
               0.000700137  0.000383561  0  
               0.000730405  0.000322307  0  
               0.000755323  0.000258689  0  
               0.00077471  0.000193173  0  
               -0.000536069  0.000591391  0  
               -0.000475754  0.000641202  0  
               -0.000410835  0.000684843  0  
               -0.000341941  0.000721893  0  
               -0.000269739  0.000751992  0  
               -0.000194929  0.00077485  0  
               -0.000118234  0.000790244  0  
               -4.03976e-05  0.000798026  0  
               3.78268e-05  0.00079812  0  
               0.000115682  0.000790525  0  
               0.000192413  0.000775316  0  
               0.000267278  0.000752639  0  
               0.000339552  0.000722713  0  
               0.000408535  0.000685829  0  
               0.000473559  0.000642344  0  
               -0.000593089  -0.000533975  0  
               -0.000645857  -0.000469149  0  
               -0.000691532  -0.000399145  0  
               -0.000729611  -0.000324735  0  
               -0.000759672  -0.00024674  0  
               -0.000781385  -0.000166022  0  
               -0.000794509  -8.34719e-05  0  
               -0.0007989  0  0  
               -0.000794509  8.34719e-05  0  
               -0.000781385  0.000166022  0  
               -0.000759672  0.00024674  0  
               -0.000729611  0.000324735  0  
               -0.000691532  0.000399145  0  
               -0.000645857  0.000469149  0  
               -0.000593089  0.000533975  0  
               0.0007915  -8e-05  0  
               0.0007915  8e-05  0  
            </DataArray>
         </Points> 

         <Cells>
            <DataArray type="Int32" Name="connectivity" NumberOfComponents="1" format="ascii">
               
            </DataArray> 
            <DataArray type="Int32" Name="offsets" NumberOfComponents="1" format="ascii">
               
            </DataArray>
            <DataArray type="UInt8"  Name="types" NumberOfComponents="1" format="ascii">
               
            </DataArray>
         </Cells>
         <PointData Scalars="Rank " Vectors="Displacement-Cylinder Force ">
            <DataArray type="UInt32" Name="Rank" NumberOfComponents="1" format="ascii">
               0 0 0 0 0 0 0 0 0 0 0 0 0 0 0 0 0 0 0 0 0 0 0 0 0 0 0 0 0 0 0 0 0 0 0 0 0 0 0 0 0 0 0 0 0 0 0 0 0 0 0 0 0 0 0 0 0 0 0 0 0 0 0 
            </DataArray>
            <DataArray type="Float64" Name="Displacement-Cylinder" NumberOfComponents="3" format="ascii">
               0 3.4338e-07 0.0  0 3.4338e-07 0.0  0 3.4338e-07 0.0  0 3.4338e-07 0.0  0 3.4338e-07 0.0  0 3.4338e-07 0.0  0 3.4338e-07 0.0  0 3.4338e-07 0.0  0 3.4338e-07 0.0  0 3.4338e-07 0.0  0 3.4338e-07 0.0  0 3.4338e-07 0.0  0 3.4338e-07 0.0  0 3.4338e-07 0.0  0 3.4338e-07 0.0  0 3.4338e-07 0.0  0 3.4338e-07 0.0  0 3.4338e-07 0.0  0 3.4338e-07 0.0  0 3.4338e-07 0.0  0 3.4338e-07 0.0  0 3.4338e-07 0.0  0 3.4338e-07 0.0  0 3.4338e-07 0.0  0 3.4338e-07 0.0  0 3.4338e-07 0.0  0 3.4338e-07 0.0  0 3.4338e-07 0.0  0 3.4338e-07 0.0  0 3.4338e-07 0.0  0 3.4338e-07 0.0  0 3.4338e-07 0.0  0 3.4338e-07 0.0  0 3.4338e-07 0.0  0 3.4338e-07 0.0  0 3.4338e-07 0.0  0 3.4338e-07 0.0  0 3.4338e-07 0.0  0 3.4338e-07 0.0  0 3.4338e-07 0.0  0 3.4338e-07 0.0  0 3.4338e-07 0.0  0 3.4338e-07 0.0  0 3.4338e-07 0.0  0 3.4338e-07 0.0  0 3.4338e-07 0.0  0 3.4338e-07 0.0  0 3.4338e-07 0.0  0 3.4338e-07 0.0  0 3.4338e-07 0.0  0 3.4338e-07 0.0  0 3.4338e-07 0.0  0 3.4338e-07 0.0  0 3.4338e-07 0.0  0 3.4338e-07 0.0  0 3.4338e-07 0.0  0 3.4338e-07 0.0  0 3.4338e-07 0.0  0 3.4338e-07 0.0  0 3.4338e-07 0.0  0 3.4338e-07 0.0  0 3.4338e-07 0.0  0 3.4338e-07 0.0  
            </DataArray>
            <DataArray type="Float64" Name="Force" NumberOfComponents="3" format="ascii">
               0.000143495 -1.62861e-05 0.0  0.000144669 1.92108e-05 0.0  4.10359e-05 -8.96314e-05 0.0  3.73796e-05 -9.97079e-05 0.0  3.36645e-05 -0.000110328 0.0  2.96435e-05 -0.000121723 0.0  2.4856e-05 -0.000132774 0.0  1.95911e-05 -0.000142033 0.0  1.38134e-05 -0.000147667 0.0  8.19892e-06 -0.00014787 0.0  4.2288e-06 -0.000141543 0.0  3.72294e-06 -0.000128177 0.0  8.16617e-06 -0.000108436 0.0  1.84026e-05 -8.44594e-05 0.0  3.4621e-05 -5.8799e-05 0.0  5.99929e-05 -1.68756e-05 0.0  5.90083e-05 -2.28627e-05 0.0  5.77033e-05 -2.87492e-05 0.0  5.60032e-05 -3.44919e-05 0.0  5.38991e-05 -4.01024e-05 0.0  5.14321e-05 -4.56197e-05 0.0  4.86453e-05 -5.10989e-05 0.0  4.56788e-05 -5.66413e-05 0.0  4.63801e-05 5.74107e-05 0.0  4.94806e-05 5.1879e-05 0.0  5.24244e-05 4.64738e-05 0.0  5.50299e-05 4.10611e-05 0.0  5.72099e-05 3.55525e-05 0.0  5.89148e-05 2.98982e-05 0.0  6.01344e-05 2.40665e-05 0.0  6.09491e-05 1.81428e-05 0.0  3.33671e-05 6.07515e-05 0.0  1.72041e-05 8.66822e-05 0.0  7.07593e-06 0.000110875 0.0  2.78698e-06 0.000130746 0.0  3.48034e-06 0.000144129 0.0  7.64672e-06 0.000150364 0.0  1.34376e-05 0.000149985 0.0  1.93773e-05 0.000144112 0.0  2.47805e-05 0.000134614 0.0  2.96721e-05 0.000123357 0.0  3.38165e-05 0.000111815 0.0  3.76084e-05 0.000101046 0.0  4.13878e-05 9.08054e-05 0.0  4.53132e-05 8.13919e-05 0.0  4.93714e-05 7.27301e-05 0.0  6.2555e-05 -3.5321e-05 0.0  9.06632e-05 -1.21412e-05 0.0  0.000125374 6.11276e-06 0.0  0.000159342 1.76962e-05 0.0  0.000190864 2.1748e-05 0.0  0.00021596 1.88444e-05 0.0  0.000232164 1.07155e-05 0.0  0.000237673 1.95243e-07 0.0  0.0002319 -1.02971e-05 0.0  0.000215439 -1.83369e-05 0.0  0.000190104 -2.10817e-05 0.0  0.000158367 -1.68133e-05 0.0  0.000124228 -4.96544e-06 0.0  8.93888e-05 1.35902e-05 0.0  6.12412e-05 3.70859e-05 0.0  0 3.43379e-07 0.0  0 3.43379e-07 0.0  
            </DataArray>
         </PointData> 
      </Piece>
   </UnstructuredGrid> 
</VTKFile>
