/*--------------------------------*- C++ -*----------------------------------*\
| =========                 |                                                 |
| \\      /  F ield         | OpenFOAM: The Open Source CFD Toolbox           |
|  \\    /   O peration     | Version:  2206                                  |
|   \\  /    A nd           | Website:  www.openfoam.com                      |
|    \\/     M anipulation  |                                                 |
\*---------------------------------------------------------------------------*/
FoamFile
{
    version     2.0;
    format      ascii;
    arch        "LSB;label=32;scalar=64";
    class       volVectorField;
    location    "3";
    object      cellDisplacement;
}
// * * * * * * * * * * * * * * * * * * * * * * * * * * * * * * * * * * * * * //

dimensions      [0 1 0 0 0 0 0];

internalField   nonuniform List<vector> 
18114
(
(-0 4.846402008974567e-10 0)
(-0 1.442095883496905e-09 0)
(-0 2.387977539077732e-09 0)
(-0 3.322508135882954e-09 0)
(-0 4.245879905322735e-09 0)
(-0 5.158258295019279e-09 0)
(-0 6.059775967079862e-09 0)
(-0 6.950525091473994e-09 0)
(-0 7.830549351195816e-09 0)
(-0 8.699836104743016e-09 0)
(-0 9.558308883354912e-09 0)
(-0 1.040582032003148e-08 0)
(-0 1.124214558430139e-08 0)
(-0 1.206697639390235e-08 0)
(-0 1.287991567988055e-08 0)
(-0 1.368047299047803e-08 0)
(-0 1.446806072929923e-08 0)
(-0 1.524199133335967e-08 0)
(-0 1.600147550564859e-08 0)
(-0 1.674562162392054e-08 0)
(-0 1.747343645156626e-08 0)
(-0 1.818382727681534e-08 0)
(-0 1.887560560218806e-08 0)
(-0 1.954749249630013e-08 0)
(-0 2.019812570414712e-08 0)
(-0 2.082606858938907e-08 0)
(-0 2.142982095284824e-08 0)
(-0 2.200783173579745e-08 0)
(-0 2.255851357568772e-08 0)
(-0 2.308025913760979e-08 0)
(-0 2.357145909999824e-08 0)
(-0 2.403052163261235e-08 0)
(-0 2.445589317567461e-08 0)
(-0 2.484608032254427e-08 0)
(-0 2.519967264168761e-08 0)
(-0 2.551536637045004e-08 0)
(-0 2.579198907675255e-08 0)
(-0 2.60285254138129e-08 0)
(-0 2.622414250137171e-08 0)
(-0 2.637819984834797e-08 0)
(-0 1.442091741104506e-09 0)
(-0 4.29013503981147e-09 0)
(-0 7.102619582127905e-09 0)
(-0 9.880160358462328e-09 0)
(-0 1.262330983970211e-08 0)
(-0 1.533254938815195e-08 0)
(-0 1.800826660646086e-08 0)
(-0 2.065073153316688e-08 0)
(-0 2.326007300896774e-08 0)
(-0 2.583625584719964e-08 0)
(-0 2.837905914948286e-08 0)
(-0 3.08880559943818e-08 0)
(-0 3.33625946922641e-08 0)
(-0 3.58017818002717e-08 0)
(-0 3.820446710858776e-08 0)
(-0 4.056923083408841e-08 0)
(-0 4.28943732850572e-08 0)
(-0 4.517790728761829e-08 0)
(-0 4.741755368821205e-08 0)
(-0 4.961074026434103e-08 0)
(-0 5.17546043854318e-08 0)
(-0 5.38459997646132e-08 0)
(-0 5.588150762809897e-08 0)
(-0 5.785745259952859e-08 0)
(-0 5.97699235503638e-08 0)
(-0 6.161479960309676e-08 0)
(-0 6.338778139155865e-08 0)
(-0 6.508442758311906e-08 0)
(-0 6.670019655402094e-08 0)
(-0 6.823049298660814e-08 0)
(-0 6.967071903411347e-08 0)
(-0 7.101632958728613e-08 0)
(-0 7.226289109654898e-08 0)
(-0 7.340614338349388e-08 0)
(-0 7.444206396690867e-08 0)
(-0 7.536693472435132e-08 0)
(-0 7.617741140240576e-08 0)
(-0 7.687059804589834e-08 0)
(-0 7.744413229885176e-08 0)
(-0 7.789629476954696e-08 0)
(-0 2.387919000756003e-09 0)
(-0 7.102466147546689e-09 0)
(-0 1.175662330312587e-08 0)
(-0 1.635138115659241e-08 0)
(-0 2.088764715273478e-08 0)
(-0 2.536621953689367e-08 0)
(-0 2.978774604615249e-08 0)
(-0 3.415268342588167e-08 0)
(-0 3.846125831845061e-08 0)
(-0 4.271342995216864e-08 0)
(-0 4.690885495441252e-08 0)
(-0 5.104685456436488e-08 0)
(-0 5.512638451450448e-08 0)
(-0 5.914600786983905e-08 0)
(-0 6.31038711485023e-08 0)
(-0 6.699768408943174e-08 0)
(-0 7.082470347708519e-08 0)
(-0 7.458172147545939e-08 0)
(-0 7.826505896020463e-08 0)
(-0 8.187056436472282e-08 0)
(-0 8.539361857000424e-08 0)
(-0 8.882914636490617e-08 0)
(-0 9.217163497989082e-08 0)
(-0 9.541516014963833e-08 0)
(-0 9.855342008569997e-08 0)
(-0 1.015797776377849e-07 0)
(-0 1.04487310791101e-07 0)
(-0 1.072688714892152e-07 0)
(-0 1.099171525913403e-07 0)
(-0 1.124247625776531e-07 0)
(-0 1.147843074177747e-07 0)
(-0 1.169884788335922e-07 0)
(-0 1.190301480434232e-07 0)
(-0 1.209024640080943e-07 0)
(-0 1.225989552708506e-07 0)
(-0 1.24113634794886e-07 0)
(-0 1.254411079483316e-07 0)
(-0 1.265766853652513e-07 0)
(-0 1.275165056897101e-07 0)
(-0 1.282576722182145e-07 0)
(-0 3.322300544895675e-09 0)
(-0 9.879572618925081e-09 0)
(-0 1.635076230570018e-08 0)
(-0 2.273725201941075e-08 0)
(-0 2.904032050055772e-08 0)
(-0 3.526110130811587e-08 0)
(-0 4.140052318183633e-08 0)
(-0 4.745925307082019e-08 0)
(-0 5.343764190551966e-08 0)
(-0 5.933567332384519e-08 0)
(-0 6.515291560173374e-08 0)
(-0 7.088847706456928e-08 0)
(-0 7.654096529097009e-08 0)
(-0 8.210845046746069e-08 0)
(-0 8.758843330845468e-08 0)
(-0 9.297781801663152e-08 0)
(-0 9.827289081984549e-08 0)
(-0 1.034693046778896e-07 0)
(-0 1.085620708012803e-07 0)
(-0 1.135455576601809e-07 0)
(-0 1.18413498179784e-07 0)
(-0 1.23159005814043e-07 0)
(-0 1.277746001577322e-07 0)
(-0 1.32252242692985e-07 0)
(-0 1.365833831670242e-07 0)
(-0 1.407590169603152e-07 0)
(-0 1.447697536283126e-07 0)
(-0 1.486058965871954e-07 0)
(-0 1.522575336696526e-07 0)
(-0 1.557146380099278e-07 0)
(-0 1.589671784418274e-07 0)
(-0 1.620052383287882e-07 0)
(-0 1.64819141517988e-07 0)
(-0 1.673995839561794e-07 0)
(-0 1.697377694703641e-07 0)
(-0 1.718255483619366e-07 0)
(-0 1.736555578563788e-07 0)
(-0 1.75221364111046e-07 0)
(-0 1.765176060994889e-07 0)
(-0 1.77540130008837e-07 0)
(-0 4.24538521959444e-09 0)
(-0 1.262187851349092e-08 0)
(-0 2.088573236408898e-08 0)
(-0 2.903875851966989e-08 0)
(-0 3.708264260283395e-08 0)
(-0 4.501888881498291e-08 0)
(-0 5.28487430039528e-08 0)
(-0 6.057311985146316e-08 0)
(-0 6.819253409515675e-08 0)
(-0 7.570703587252884e-08 0)
(-0 8.311615037534455e-08 0)
(-0 9.041882207849166e-08 0)
(-0 9.76133638781039e-08 0)
(-0 1.046974115477653e-07 0)
(-0 1.116678839995209e-07 0)
(-0 1.185209499161924e-07 0)
(-0 1.252520013996423e-07 0)
(-0 1.318556353518804e-07 0)
(-0 1.383256433674392e-07 0)
(-0 1.446550109608865e-07 0)
(-0 1.50835926977028e-07 0)
(-0 1.568598040272137e-07 0)
(-0 1.627173107572971e-07 0)
(-0 1.683984166755275e-07 0)
(-0 1.738924501472474e-07 0)
(-0 1.791881699943088e-07 0)
(-0 1.842738509194497e-07 0)
(-0 1.891373827110086e-07 0)
(-0 1.937663828766924e-07 0)
(-0 1.981483220162235e-07 0)
(-0 2.022706608863179e-07 0)
(-0 2.061209977575853e-07 0)
(-0 2.096872243368991e-07 0)
(-0 2.129576882599533e-07 0)
(-0 2.159213599770007e-07 0)
(-0 2.185680017797206e-07 0)
(-0 2.20888336726253e-07 0)
(-0 2.228742151504385e-07 0)
(-0 2.245187756718551e-07 0)
(-0 2.258165812350848e-07 0)
(-0 5.1572960093277e-09 0)
(-0 1.532973967793287e-08 0)
(-0 2.53621250514171e-08 0)
(-0 3.525674828149514e-08 0)
(-0 4.50157543619227e-08 0)
(-0 5.464106907068456e-08 0)
(-0 6.413430579104724e-08 0)
(-0 7.349667765206419e-08 0)
(-0 8.272891487743461e-08 0)
(-0 9.183118737689918e-08 0)
(-0 1.008030327307115e-07 0)
(-0 1.096432898188535e-07 0)
(-0 1.183500384432096e-07 0)
(-0 1.269205453879947e-07 0)
(-0 1.353512174623897e-07 0)
(-0 1.436375621679958e-07 0)
(-0 1.517741567291831e-07 0)
(-0 1.597546263123453e-07 0)
(-0 1.675716323352648e-07 0)
(-0 1.75216871824232e-07 0)
(-0 1.826810888077111e-07 0)
(-0 1.899540987341121e-07 0)
(-0 1.970248268605074e-07 0)
(-0 2.038813614719725e-07 0)
(-0 2.105110226516026e-07 0)
(-0 2.169004471245086e-07 0)
(-0 2.230356894429698e-07 0)
(-0 2.289023394652447e-07 0)
(-0 2.344856557121987e-07 0)
(-0 2.397707137736308e-07 0)
(-0 2.447425684948953e-07 0)
(-0 2.493864282244746e-07 0)
(-0 2.536878389690705e-07 0)
(-0 2.576328759108251e-07 0)
(-0 2.6120833941339e-07 0)
(-0 2.644019523843716e-07 0)
(-0 2.672025556295484e-07 0)
(-0 2.696002974662598e-07 0)
(-0 2.715868128526113e-07 0)
(-0 2.731553688069741e-07 0)
(-0 6.058123937449677e-09 0)
(-0 1.800342080818641e-08 0)
(-0 2.97803859618768e-08 0)
(-0 4.139187069706174e-08 0)
(-0 5.284054711270202e-08 0)
(-0 6.412882782319789e-08 0)
(-0 7.525875745724963e-08 0)
(-0 8.623191055714535e-08 0)
(-0 9.704929577055025e-08 0)
(-0 1.077112663438907e-07 0)
(-0 1.18217437042836e-07 0)
(-0 1.285666077398399e-07 0)
(-0 1.387566940233705e-07 0)
(-0 1.487846652997675e-07 0)
(-0 1.586464909763464e-07 0)
(-0 1.683370954314641e-07 0)
(-0 1.778503225903436e-07 0)
(-0 1.871789110300412e-07 0)
(-0 1.963144806273158e-07 0)
(-0 2.052475318327624e-07 0)
(-0 2.139674586960065e-07 0)
(-0 2.224625767718478e-07 0)
(-0 2.307201669976706e-07 0)
(-0 2.387265365397227e-07 0)
(-0 2.46467097452503e-07 0)
(-0 2.53926463775107e-07 0)
(-0 2.610885673973015e-07 0)
(-0 2.679367926657317e-07 0)
(-0 2.744541292711231e-07 0)
(-0 2.806233424698065e-07 0)
(-0 2.864271591627638e-07 0)
(-0 2.918484678036942e-07 0)
(-0 2.968705295603325e-07 0)
(-0 3.014771976385378e-07 0)
(-0 3.056531412211336e-07 0)
(-0 3.093840700850554e-07 0)
(-0 3.126569556207816e-07 0)
(-0 3.154602435873682e-07 0)
(-0 3.177840531331683e-07 0)
(-0 3.196203365378244e-07 0)
(-0 6.947920258066568e-09 0)
(-0 2.064307134572852e-08 0)
(-0 3.414077373515121e-08 0)
(-0 4.744451927431884e-08 0)
(-0 6.055758894390471e-08 0)
(-0 7.348296064737254e-08 0)
(-0 8.622318622352191e-08 0)
(-0 9.87802758932771e-08 0)
(-0 1.111555900217356e-07 0)
(-0 1.233497381797328e-07 0)
(-0 1.353624856056564e-07 0)
(-0 1.471926672920445e-07 0)
(-0 1.588381100505559e-07 0)
(-0 1.702955630419785e-07 0)
(-0 1.815606373934382e-07 0)
(-0 1.92627755660229e-07 0)
(-0 2.034901120209862e-07 0)
(-0 2.141396442174302e-07 0)
(-0 2.245670183574939e-07 0)
(-0 2.34761627786231e-07 0)
(-0 2.447116072841364e-07 0)
(-0 2.544038638682627e-07 0)
(-0 2.638241254379562e-07 0)
(-0 2.729570084141433e-07 0)
(-0 2.817861053593183e-07 0)
(-0 2.902940933264176e-07 0)
(-0 2.984628633627564e-07 0)
(-0 3.062736711876929e-07 0)
(-0 3.137073085722633e-07 0)
(-0 3.207442943841492e-07 0)
(-0 3.273650836375482e-07 0)
(-0 3.335502922276424e-07 0)
(-0 3.392809343627872e-07 0)
(-0 3.445386690685022e-07 0)
(-0 3.49306051560698e-07 0)
(-0 3.535667848009483e-07 0)
(-0 3.573059661667044e-07 0)
(-0 3.605103238533982e-07 0)
(-0 3.63168437097202e-07 0)
(-0 3.652709125859294e-07 0)
(-0 7.826688355311349e-09 0)
(-0 2.324870153031347e-08 0)
(-0 3.844332042734151e-08 0)
(-0 5.341477668974322e-08 0)
(-0 6.816705500174018e-08 0)
(-0 8.270378917809582e-08 0)
(-0 9.702812549811001e-08 0)
(-0 1.111425944856604e-07 0)
(-0 1.250489909794614e-07 0)
(-0 1.38748262440196e-07 0)
(-0 1.522404055621219e-07 0)
(-0 1.65524371390223e-07 0)
(-0 1.785979792863903e-07 0)
(-0 1.914578402369874e-07 0)
(-0 2.040992901469435e-07 0)
(-0 2.165163339191315e-07 0)
(-0 2.287016012681786e-07 0)
(-0 2.406463153599003e-07 0)
(-0 2.523402754948875e-07 0)
(-0 2.637718551596204e-07 0)
(-0 2.749280168418864e-07 0)
(-0 2.857943450388086e-07 0)
(-0 2.963550988642472e-07 0)
(-0 3.065932855756788e-07 0)
(-0 3.16490756177107e-07 0)
(-0 3.260283240031968e-07 0)
(-0 3.351859068419717e-07 0)
(-0 3.439426927040083e-07 0)
(-0 3.52277328795326e-07 0)
(-0 3.601681326062142e-07 0)
(-0 3.675933233045614e-07 0)
(-0 3.745312708447279e-07 0)
(-0 3.80960759405947e-07 0)
(-0 3.868612610005026e-07 0)
(-0 3.922132143903394e-07 0)
(-0 3.969983038720816e-07 0)
(-0 4.011997320788055e-07 0)
(-0 4.04802480705619e-07 0)
(-0 4.07793552765341e-07 0)
(-0 4.101621665695019e-07 0)
(-0 8.694375795368448e-09 0)
(-0 2.582015924196077e-08 0)
(-0 4.268779365535987e-08 0)
(-0 5.930236275526603e-08 0)
(-0 7.566866186100144e-08 0)
(-0 9.17910825158543e-08 0)
(-0 1.076734629714291e-07 0)
(-0 1.233189481086493e-07 0)
(-0 1.387298585769431e-07 0)
(-0 1.539075690433763e-07 0)
(-0 1.688523955735129e-07 0)
(-0 1.835634923106678e-07 0)
(-0 1.980387577764228e-07 0)
(-0 2.122747512798847e-07 0)
(-0 2.262666200933788e-07 0)
(-0 2.400080382247386e-07 0)
(-0 2.534911577869971e-07 0)
(-0 2.667065741298363e-07 0)
(-0 2.796433060470439e-07 0)
(-0 2.922887925022921e-07 0)
(-0 3.04628907412089e-07 0)
(-0 3.166479940782119e-07 0)
(-0 3.283289208594989e-07 0)
(-0 3.396531596003536e-07 0)
(-0 3.506008881761577e-07 0)
(-0 3.611511182598849e-07 0)
(-0 3.712818490471823e-07 0)
(-0 3.809702471903658e-07 0)
(-0 3.901928525819078e-07 0)
(-0 3.989258088997991e-07 0)
(-0 4.071451169953094e-07 0)
(-0 4.148269082947993e-07 0)
(-0 4.219477344410098e-07 0)
(-0 4.284848684684098e-07 0)
(-0 4.344166119561993e-07 0)
(-0 4.397226019042314e-07 0)
(-0 4.443841106048882e-07 0)
(-0 4.483843315779226e-07 0)
(-0 4.517086445094968e-07 0)
(-0 4.54344827104095e-07 0)
(-0 9.550866708825216e-09 0)
(-0 2.835710797336161e-08 0)
(-0 4.687366083893339e-08 0)
(-0 6.51065855498086e-08 0)
(-0 8.306160615213377e-08 0)
(-0 1.007439839548036e-07 0)
(-0 1.18158356050024e-07 0)
(-0 1.353085842295381e-07 0)
(-0 1.521976139924665e-07 0)
(-0 1.68827343463883e-07 0)
(-0 1.851985021858247e-07 0)
(-0 2.013105399006568e-07 0)
(-0 2.171615256175872e-07 0)
(-0 2.32748057433923e-07 0)
(-0 2.480651837706662e-07 0)
(-0 2.631063368741366e-07 0)
(-0 2.778632796274776e-07 0)
(-0 2.92326066903104e-07 0)
(-0 3.064830228627316e-07 0)
(-0 3.203207357672669e-07 0)
(-0 3.338240719842127e-07 0)
(-0 3.469762109627441e-07 0)
(-0 3.597587029717567e-07 0)
(-0 3.721515513473462e-07 0)
(-0 3.841333208556524e-07 0)
(-0 3.956812735266162e-07 0)
(-0 4.067715329370116e-07 0)
(-0 4.173792774033598e-07 0)
(-0 4.274789618788764e-07 0)
(-0 4.37044567534093e-07 0)
(-0 4.460498770505574e-07 0)
(-0 4.544687725983961e-07 0)
(-0 4.622755523459699e-07 0)
(-0 4.694452602263731e-07 0)
(-0 4.759540226422002e-07 0)
(-0 4.817793849230879e-07 0)
(-0 4.869006397640246e-07 0)
(-0 4.912991396469557e-07 0)
(-0 4.94958585264528e-07 0)
(-0 4.978652554687245e-07 0)
(-0 1.039597460077164e-08 0)
(-0 3.085900616145511e-08 0)
(-0 5.100005581690086e-08 0)
(-0 7.082629599334526e-08 0)
(-0 9.034450770994756e-08 0)
(-0 1.095609432868998e-07 0)
(-0 1.284811538715961e-07 0)
(-0 1.471098282722982e-07 0)
(-0 1.654506426898864e-07 0)
(-0 1.835061210775504e-07 0)
(-0 2.012775060158186e-07 0)
(-0 2.187646401634514e-07 0)
(-0 2.359658585310818e-07 0)
(-0 2.528778920219284e-07 0)
(-0 2.694957828901419e-07 0)
(-0 2.858128129797187e-07 0)
(-0 3.018204458219215e-07 0)
(-0 3.175082838820803e-07 0)
(-0 3.328640424512204e-07 0)
(-0 3.478735418658721e-07 0)
(-0 3.625207198999395e-07 0)
(-0 3.767876662922133e-07 0)
(-0 3.906546814357547e-07 0)
(-0 4.041003612418515e-07 0)
(-0 4.171017100800415e-07 0)
(-0 4.296342834640034e-07 0)
(-0 4.41672361777972e-07 0)
(-0 4.531891557993405e-07 0)
(-0 4.641570440551875e-07 0)
(-0 4.745478411477557e-07 0)
(-0 4.843330951041165e-07 0)
(-0 4.934844105741895e-07 0)
(-0 5.019737933667182e-07 0)
(-0 5.097740104476098e-07 0)
(-0 5.168589582277541e-07 0)
(-0 5.232040308605605e-07 0)
(-0 5.287864794927273e-07 0)
(-0 5.335857530985213e-07 0)
(-0 5.37583811663614e-07 0)
(-0 5.407653747319963e-07 0)
(-0 1.122943566318764e-08 0)
(-0 3.332508807280718e-08 0)
(-0 5.506574810907545e-08 0)
(-0 7.645984617773203e-08 0)
(-0 9.751535758210863e-08 0)
(-0 1.182396550342164e-07 0)
(-0 1.386393262602899e-07 0)
(-0 1.587200037601835e-07 0)
(-0 1.78486206189024e-07 0)
(-0 1.979411909868581e-07 0)
(-0 2.170868180561391e-07 0)
(-0 2.359234244759218e-07 0)
(-0 2.544497104439851e-07 0)
(-0 2.726626368523522e-07 0)
(-0 2.905573351263295e-07 0)
(-0 3.081270301902503e-07 0)
(-0 3.253629776619363e-07 0)
(-0 3.422544166184864e-07 0)
(-0 3.587885395127717e-07 0)
(-0 3.749504810449913e-07 0)
(-0 3.907233279962022e-07 0)
(-0 4.060881521967362e-07 0)
(-0 4.21024068914156e-07 0)
(-0 4.35508322981065e-07 0)
(-0 4.49516404917174e-07 0)
(-0 4.630221991039987e-07 0)
(-0 4.759981657142394e-07 0)
(-0 4.884155575521259e-07 0)
(-0 5.002446722010632e-07 0)
(-0 5.114551388852764e-07 0)
(-0 5.22016238232338e-07 0)
(-0 5.318972516942563e-07 0)
(-0 5.410678357946623e-07 0)
(-0 5.494984146996604e-07 0)
(-0 5.571605829769953e-07 0)
(-0 5.640275089646542e-07 0)
(-0 5.700743281000137e-07 0)
(-0 5.752785150682559e-07 0)
(-0 5.796202238539896e-07 0)
(-0 5.830825560026942e-07 0)
(-0 1.205090266148638e-08 0)
(-0 3.575434643848895e-08 0)
(-0 5.906911511537518e-08 0)
(-0 8.200505181639951e-08 0)
(-0 1.045714713106691e-07 0)
(-0 1.267770030601612e-07 0)
(-0 1.486294000997233e-07 0)
(-0 1.701353608317521e-07 0)
(-0 1.91300363067773e-07 0)
(-0 2.121285098258949e-07 0)
(-0 2.326223865846964e-07 0)
(-0 2.527829298994081e-07 0)
(-0 2.726093075045987e-07 0)
(-0 2.920988102583349e-07 0)
(-0 3.112467565254794e-07 0)
(-0 3.30046409851473e-07 0)
(-0 3.484889110410257e-07 0)
(-0 3.665632260258493e-07 0)
(-0 3.842561111773215e-07 0)
(-0 4.015520979867861e-07 0)
(-0 4.184334992878593e-07 0)
(-0 4.348804394174235e-07 0)
(-0 4.508709108860138e-07 0)
(-0 4.663808602297229e-07 0)
(-0 4.813843057148138e-07 0)
(-0 4.958534894278521e-07 0)
(-0 5.097590659695296e-07 0)
(-0 5.230703294390782e-07 0)
(-0 5.357554796105597e-07 0)
(-0 5.477819271329833e-07 0)
(-0 5.591166362193845e-07 0)
(-0 5.697265016364667e-07 0)
(-0 5.795787549104995e-07 0)
(-0 5.886413926134173e-07 0)
(-0 5.968836175202541e-07 0)
(-0 6.042762815214312e-07 0)
(-0 6.107923176698688e-07 0)
(-0 6.164071479410042e-07 0)
(-0 6.21099053537477e-07 0)
(-0 6.248494649951675e-07 0)
(-0 1.28599394724771e-08 0)
(-0 3.814551705160625e-08 0)
(-0 6.300811757885097e-08 0)
(-0 8.745915923133168e-08 0)
(-0 1.115094479784478e-07 0)
(-0 1.351690121098636e-07 0)
(-0 1.58446903720177e-07 0)
(-0 1.813510137620246e-07 0)
(-0 2.038878998527533e-07 0)
(-0 2.260626262167853e-07 0)
(-0 2.478786153551757e-07 0)
(-0 2.693375112552355e-07 0)
(-0 2.904390541867554e-07 0)
(-0 3.111809673776785e-07 0)
(-0 3.315588561217353e-07 0)
(-0 3.515661201439256e-07 0)
(-0 3.711938803367158e-07 0)
(-0 3.90430921279201e-07 0)
(-0 4.092636512603445e-07 0)
(-0 4.276760818402492e-07 0)
(-0 4.456498292912502e-07 0)
(-0 4.631641405497893e-07 0)
(-0 4.801959465610689e-07 0)
(-0 4.967199460850528e-07 0)
(-0 5.127087231203923e-07 0)
(-0 5.281329010503049e-07 0)
(-0 5.429613363721714e-07 0)
(-0 5.571613543865813e-07 0)
(-0 5.706990284369305e-07 0)
(-0 5.835395031587279e-07 0)
(-0 5.956473606847796e-07 0)
(-0 6.06987026851596e-07 0)
(-0 6.175232121968507e-07 0)
(-0 6.27221380013727e-07 0)
(-0 6.36048231086045e-07 0)
(-0 6.439721921911366e-07 0)
(-0 6.50963893329917e-07 0)
(-0 6.569966173424854e-07 0)
(-0 6.620467057294463e-07 0)
(-0 6.660938743222609e-07 0)
(-0 1.365601635983128e-08 0)
(-0 4.049706556542328e-08 0)
(-0 6.688027868118806e-08 0)
(-0 9.281881735631714e-08 0)
(-0 1.183251355918059e-07 0)
(-0 1.434108069287691e-07 0)
(-0 1.680863200137486e-07 0)
(-0 1.923608882563596e-07 0)
(-0 2.162422726099377e-07 0)
(-0 2.397366167234332e-07 0)
(-0 2.628482939396265e-07 0)
(-0 2.85579765851331e-07 0)
(-0 3.079314523747775e-07 0)
(-0 3.29901613559448e-07 0)
(-0 3.51486243628232e-07 0)
(-0 3.726789780328665e-07 0)
(-0 3.934710146189613e-07 0)
(-0 4.138510503233215e-07 0)
(-0 4.338052351731191e-07 0)
(-0 4.53317145718517e-07 0)
(-0 4.723677804007707e-07 0)
(-0 4.909355797244667e-07 0)
(-0 5.089964744465598e-07 0)
(-0 5.265239652886154e-07 0)
(-0 5.434892378844507e-07 0)
(-0 5.598613167439362e-07 0)
(-0 5.756072618845745e-07 0)
(-0 5.906924113849046e-07 0)
(-0 6.050806723714591e-07 0)
(-0 6.187348617888195e-07 0)
(-0 6.316170966577931e-07 0)
(-0 6.43689231365024e-07 0)
(-0 6.549133368594641e-07 0)
(-0 6.652522135336334e-07 0)
(-0 6.746699262008766e-07 0)
(-0 6.831323462037272e-07 0)
(-0 6.906076826821699e-07 0)
(-0 6.970669829560149e-07 0)
(-0 7.02484581827611e-07 0)
(-0 7.068384489457224e-07 0)
(-0 1.443850608314383e-08 0)
(-0 4.280717675727136e-08 0)
(-0 7.068266718299077e-08 0)
(-0 9.808005529583824e-08 0)
(-0 1.25013603448751e-07 0)
(-0 1.51496579703163e-07 0)
(-0 1.775410491036702e-07 0)
(-0 2.031576794153483e-07 0)
(-0 2.283555601966674e-07 0)
(-0 2.531420343189195e-07 0)
(-0 2.775225412864108e-07 0)
(-0 3.015004719618324e-07 0)
(-0 3.250770345603655e-07 0)
(-0 3.482511320471085e-07 0)
(-0 3.71019251358769e-07 0)
(-0 3.933753651760821e-07 0)
(-0 4.153108473019936e-07 0)
(-0 4.368144030557377e-07 0)
(-0 4.578720164768372e-07 0)
(-0 4.784669165457603e-07 0)
(-0 4.985795650659397e-07 0)
(-0 5.181876693058693e-07 0)
(-0 5.372662229532965e-07 0)
(-0 5.557875793587981e-07 0)
(-0 5.737215614031489e-07 0)
(-0 5.910356125560673e-07 0)
(-0 6.07694993730512e-07 0)
(-0 6.236630302871535e-07 0)
(-0 6.389014129048031e-07 0)
(-0 6.533705548950449e-07 0)
(-0 6.670300068002121e-07 0)
(-0 6.798389266959069e-07 0)
(-0 6.917566014955507e-07 0)
(-0 7.027430107768321e-07 0)
(-0 7.127594203776389e-07 0)
(-0 7.21768988534789e-07 0)
(-0 7.297373631216102e-07 0)
(-0 7.366332453080037e-07 0)
(-0 7.424288941437096e-07 0)
(-0 7.471005153593313e-07 0)
(-0 1.520668094654443e-08 0)
(-0 4.507374654976298e-08 0)
(-0 7.441188506243869e-08 0)
(-0 1.032382660348202e-07 0)
(-0 1.315691222119961e-07 0)
(-0 1.59419566652527e-07 0)
(-0 1.868033814966529e-07 0)
(-0 2.13732821389558e-07 0)
(-0 2.402184302765502e-07 0)
(-0 2.662688705444891e-07 0)
(-0 2.918907637420412e-07 0)
(-0 3.170885423726023e-07 0)
(-0 3.418643125213053e-07 0)
(-0 3.662177273555985e-07 0)
(-0 3.901458718324978e-07 0)
(-0 4.136431592606016e-07 0)
(-0 4.367012407077846e-07 0)
(-0 4.593089286226393e-07 0)
(-0 4.814521364552642e-07 0)
(-0 5.031138365251811e-07 0)
(-0 5.242740388921318e-07 0)
(-0 5.44909794534866e-07 0)
(-0 5.649952267211383e-07 0)
(-0 5.84501595034502e-07 0)
(-0 6.033973970697387e-07 0)
(-0 6.216485132584235e-07 0)
(-0 6.392184005549611e-07 0)
(-0 6.56068340691356e-07 0)
(-0 6.721577482612246e-07 0)
(-0 6.874445428670696e-07 0)
(-0 7.018855878020234e-07 0)
(-0 7.154371950990836e-07 0)
(-0 7.280556931796757e-07 0)
(-0 7.396980487735499e-07 0)
(-0 7.503225294035544e-07 0)
(-0 7.598893868478081e-07 0)
(-0 7.683615361479585e-07 0)
(-0 7.757051998300593e-07 0)
(-0 7.818904849464046e-07 0)
(-0 7.868918284669079e-07 0)
(-0 1.595971090152971e-08 0)
(-0 4.729437710356528e-08 0)
(-0 7.806406014096653e-08 0)
(-0 1.082881969413657e-07 0)
(-0 1.379851524657304e-07 0)
(-0 1.671720346760707e-07 0)
(-0 1.958644827344529e-07 0)
(-0 2.24076469847236e-07 0)
(-0 2.518201193225047e-07 0)
(-0 2.79105532684182e-07 0)
(-0 3.05940628957019e-07 0)
(-0 3.323309945057782e-07 0)
(-0 3.582797430837658e-07 0)
(-0 3.837873860258792e-07 0)
(-0 4.088517128162011e-07 0)
(-0 4.334676825778898e-07 0)
(-0 4.576273273828319e-07 0)
(-0 4.813196686703521e-07 0)
(-0 5.045306485086907e-07 0)
(-0 5.272430779397054e-07 0)
(-0 5.494366052237791e-07 0)
(-0 5.710877074508842e-07 0)
(-0 5.921697096995376e-07 0)
(-0 6.126528366896248e-07 0)
(-0 6.325043026509635e-07 0)
(-0 6.516884458552792e-07 0)
(-0 6.701669148416816e-07 0)
(-0 6.878989136742348e-07 0)
(-0 7.048415134346315e-07 0)
(-0 7.209500363668429e-07 0)
(-0 7.361785174243669e-07 0)
(-0 7.504802451980357e-07 0)
(-0 7.638083801426634e-07 0)
(-0 7.761166425968573e-07 0)
(-0 7.873600563944993e-07 0)
(-0 7.974957262247483e-07 0)
(-0 8.064836189327804e-07 0)
(-0 8.142873117515781e-07 0)
(-0 8.208746663924027e-07 0)
(-0 8.262183542120095e-07 0)
(-0 1.669666282530655e-08 0)
(-0 4.946637531266954e-08 0)
(-0 8.163484420977803e-08 0)
(-0 1.132239477379579e-07 0)
(-0 1.44254342577135e-07 0)
(-0 1.747452790084687e-07 0)
(-0 2.047143906262062e-07 0)
(-0 2.341774984589333e-07 0)
(-0 2.631484279329402e-07 0)
(-0 2.91638837401682e-07 0)
(-0 3.196580572453814e-07 0)
(-0 3.472129388177088e-07 0)
(-0 3.743077127874246e-07 0)
(-0 4.009438566985204e-07 0)
(-0 4.271199718610078e-07 0)
(-0 4.528316699961095e-07 0)
(-0 4.780714704063077e-07 0)
(-0 5.028287088364328e-07 0)
(-0 5.270894596523601e-07 0)
(-0 5.508364735052853e-07 0)
(-0 5.740491332875424e-07 0)
(-0 5.967034319328417e-07 0)
(-0 6.187719764746404e-07 0)
(-0 6.402240237434997e-07 0)
(-0 6.610255541299476e-07 0)
(-0 6.811393909064805e-07 0)
(-0 7.005253735939294e-07 0)
(-0 7.191405946258426e-07 0)
(-0 7.369397089029214e-07 0)
(-0 7.538753254694542e-07 0)
(-0 7.698984891639204e-07 0)
(-0 7.849592573502792e-07 0)
(-0 7.990073724058199e-07 0)
(-0 8.119930243147007e-07 0)
(-0 8.238676894935537e-07 0)
(-0 8.345850221758128e-07 0)
(-0 8.441017640348652e-07 0)
(-0 8.523786275377219e-07 0)
(-0 8.593811015950446e-07 0)
(-0 8.650800915541339e-07 0)
(-0 1.741650109957704e-08 0)
(-0 5.158675504124822e-08 0)
(-0 8.511941718254905e-08 0)
(-0 1.180389766316643e-07 0)
(-0 1.503685367033977e-07 0)
(-0 1.82129632866311e-07 0)
(-0 2.133420261791142e-07 0)
(-0 2.440235106522479e-07 0)
(-0 2.741897328528344e-07 0)
(-0 3.038540223752481e-07 0)
(-0 3.330272320851251e-07 0)
(-0 3.617175873164379e-07 0)
(-0 3.899305434652912e-07 0)
(-0 4.176686516880054e-07 0)
(-0 4.44931432684314e-07 0)
(-0 4.71715258841198e-07 0)
(-0 4.980132453437573e-07 0)
(-0 5.238151512445719e-07 0)
(-0 5.491072919434557e-07 0)
(-0 5.738724650892767e-07 0)
(-0 5.980898926002468e-07 0)
(-0 6.217351823334825e-07 0)
(-0 6.447803139387481e-07 0)
(-0 6.671936546140186e-07 0)
(-0 6.889400118306863e-07 0)
(-0 7.099807315705714e-07 0)
(-0 7.302738521242355e-07 0)
(-0 7.497743248840773e-07 0)
(-0 7.684343145868301e-07 0)
(-0 7.862035917828554e-07 0)
(-0 8.030300295018139e-07 0)
(-0 8.188602136393937e-07 0)
(-0 8.336401719864504e-07 0)
(-0 8.473162196329095e-07 0)
(-0 8.598359085332974e-07 0)
(-0 8.711490566009703e-07 0)
(-0 8.812088177198614e-07 0)
(-0 8.899727402453839e-07 0)
(-0 8.974037512435837e-07 0)
(-0 9.034709634117401e-07 0)
(-0 1.811808961449048e-08 0)
(-0 5.365224343853507e-08 0)
(-0 8.851249779401117e-08 0)
(-0 1.227261152858682e-07 0)
(-0 1.563187937763222e-07 0)
(-0 1.893144900600542e-07 0)
(-0 2.217352193438433e-07 0)
(-0 2.536008678984834e-07 0)
(-0 2.84929017115135e-07 0)
(-0 3.157347775115056e-07 0)
(-0 3.460306315198848e-07 0)
(-0 3.758262841543126e-07 0)
(-0 4.051285209045438e-07 0)
(-0 4.339410724482526e-07 0)
(-0 4.622644860205534e-07 0)
(-0 4.900960035448761e-07 0)
(-0 5.174294469286971e-07 0)
(-0 5.442551112833692e-07 0)
(-0 5.705596672661593e-07 0)
(-0 5.96326074296884e-07 0)
(-0 6.215335071083293e-07 0)
(-0 6.461572989890585e-07 0)
(-0 6.701689062089144e-07 0)
(-0 6.935358995139594e-07 0)
(-0 7.162219902541513e-07 0)
(-0 7.381871006468086e-07 0)
(-0 7.593874898119047e-07 0)
(-0 7.797759493922463e-07 0)
(-0 7.993020845334896e-07 0)
(-0 8.179126973470969e-07 0)
(-0 8.355522901557598e-07 0)
(-0 8.52163704114019e-07 0)
(-0 8.676889043967037e-07 0)
(-0 8.820699152798458e-07 0)
(-0 8.952498966081051e-07 0)
(-0 9.071743374990534e-07 0)
(-0 9.177923249095475e-07 0)
(-0 9.270578265950977e-07 0)
(-0 9.349309148538192e-07 0)
(-0 9.413788151179171e-07 0)
(-0 1.880019531755786e-08 0)
(-0 5.565929165236235e-08 0)
(-0 9.18083613376993e-08 0)
(-0 1.272775932803269e-07 0)
(-0 1.620954182537973e-07 0)
(-0 1.962883414994714e-07 0)
(-0 2.298807506442346e-07 0)
(-0 2.628947357513486e-07 0)
(-0 2.953499196874295e-07 0)
(-0 3.272632973067674e-07 0)
(-0 3.58649082236975e-07 0)
(-0 3.895185603027364e-07 0)
(-0 4.198799488539825e-07 0)
(-0 4.497382614795785e-07 0)
(-0 4.790951777983435e-07 0)
(-0 5.079489182401593e-07 0)
(-0 5.362941239798715e-07 0)
(-0 5.641217424904202e-07 0)
(-0 5.91418919571341e-07 0)
(-0 6.181688992249528e-07 0)
(-0 6.443509334449041e-07 0)
(-0 6.699402049080757e-07 0)
(-0 6.94907766785064e-07 0)
(-0 7.192205054703058e-07 0)
(-0 7.428411340340353e-07 0)
(-0 7.657282266409707e-07 0)
(-0 7.878363070383191e-07 0)
(-0 8.091160073725142e-07 0)
(-0 8.295143167985338e-07 0)
(-0 8.489749421562602e-07 0)
(-0 8.674388047221832e-07 0)
(-0 8.848446967462799e-07 0)
(-0 9.011301179486909e-07 0)
(-0 9.162323040573325e-07 0)
(-0 9.300894456983169e-07 0)
(-0 9.426420762052979e-07 0)
(-0 9.538345827106119e-07 0)
(-0 9.636167709578215e-07 0)
(-0 9.719454002522575e-07 0)
(-0 9.787855711792998e-07 0)
(-0 1.946149341699876e-08 0)
(-0 5.760409023116511e-08 0)
(-0 9.500086488599047e-08 0)
(-0 1.316850726387688e-07 0)
(-0 1.676880033450351e-07 0)
(-0 2.030388264269719e-07 0)
(-0 2.3776440966053e-07 0)
(-0 2.718891487561443e-07 0)
(-0 3.054348059125366e-07 0)
(-0 3.384203558417825e-07 0)
(-0 3.708618380373749e-07 0)
(-0 4.027722142912578e-07 0)
(-0 4.341612306672624e-07 0)
(-0 4.65035283315164e-07 0)
(-0 4.953972876718935e-07 0)
(-0 5.252465507582903e-07 0)
(-0 5.545786464602659e-07 0)
(-0 5.833852939089647e-07 0)
(-0 6.116542393816061e-07 0)
(-0 6.393691425811608e-07 0)
(-0 6.665094687809229e-07 0)
(-0 6.930503892163409e-07 0)
(-0 7.189626933629307e-07 0)
(-0 7.442127184582084e-07 0)
(-0 7.687623039121481e-07 0)
(-0 7.925687811946209e-07 0)
(-0 8.155850134357368e-07 0)
(-0 8.377595032831891e-07 0)
(-0 8.590365923326062e-07 0)
(-0 8.793567802462448e-07 0)
(-0 8.98657195727503e-07 0)
(-0 9.168722536148564e-07 0)
(-0 9.339345308014191e-07 0)
(-0 9.497758863465521e-07 0)
(-0 9.64328835769969e-07 0)
(-0 9.775281645315844e-07 0)
(-0 9.89312731986741e-07 0)
(-0 9.996273817323452e-07 0)
(-0 1.00842485776385e-06 0)
(-0 1.015667625079896e-06 0)
(-0 2.010057433262327e-08 0)
(-0 5.94825894569907e-08 0)
(-0 9.808348035935907e-08 0)
(-0 1.359396929005286e-07 0)
(-0 1.730854872902161e-07 0)
(-0 2.095527990669944e-07 0)
(-0 2.45371071173825e-07 0)
(-0 2.805670951767796e-07 0)
(-0 3.15164859858025e-07 0)
(-0 3.491854057281992e-07 0)
(-0 3.826466842621579e-07 0)
(-0 4.155634208716161e-07 0)
(-0 4.479469807947252e-07 0)
(-0 4.798052372130935e-07 0)
(-0 5.111424410098868e-07 0)
(-0 5.419590916706272e-07 0)
(-0 5.722518089189147e-07 0)
(-0 6.020132047988504e-07 0)
(-0 6.312317561023639e-07 0)
(-0 6.598916773463222e-07 0)
(-0 6.879727950039815e-07 0)
(-0 7.154504244835493e-07 0)
(-0 7.422952525446732e-07 0)
(-0 7.684732295983967e-07 0)
(-0 7.939454788155473e-07 0)
(-0 8.186682323481733e-07 0)
(-0 8.425928094035621e-07 0)
(-0 8.656656564841951e-07 0)
(-0 8.878284767499171e-07 0)
(-0 9.090184828267874e-07 0)
(-0 9.291688147034291e-07 0)
(-0 9.482091702202379e-07 0)
(-0 9.660666978532573e-07 0)
(-0 9.826671968553084e-07 0)
(-0 9.979366542911466e-07 0)
(-0 1.011803117734056e-06 0)
(-0 1.024198853578675e-06 0)
(-0 1.035062678603314e-06 0)
(-0 1.044342307169452e-06 0)
(-0 1.051996591250578e-06 0)
(-0 2.071595246480848e-08 0)
(-0 6.129052478767413e-08 0)
(-0 1.010493357085054e-07 0)
(-0 1.400321270731254e-07 0)
(-0 1.782762231020906e-07 0)
(-0 2.158164111766273e-07 0)
(-0 2.526847895508547e-07 0)