/*--------------------------------*- C++ -*----------------------------------*\
| =========                 |                                                 |
| \\      /  F ield         | OpenFOAM: The Open Source CFD Toolbox           |
|  \\    /   O peration     | Version:  2206                                  |
|   \\  /    A nd           | Website:  www.openfoam.com                      |
|    \\/     M anipulation  |                                                 |
\*---------------------------------------------------------------------------*/
FoamFile
{
    version     2.0;
    format      ascii;
    arch        "LSB;label=32;scalar=64";
    class       volVectorField;
    location    "3";
    object      ddt0(U);
}
// * * * * * * * * * * * * * * * * * * * * * * * * * * * * * * * * * * * * * //

dimensions      [0 1 -2 0 0 0 0];

internalField   nonuniform List<vector> 
18114
(
(-7.801062365230666e-07 3.980565027893758e-06 3.120911566564375e-25)
(-5.521631910779668e-06 1.536807954788832e-06 -1.808840682249317e-25)
(-1.686093083845022e-05 4.577092359074772e-06 1.120411886311952e-25)
(-3.354995566986109e-05 7.917695342671692e-06 1.335245983178351e-25)
(-5.425721335255245e-05 1.079388589989105e-05 -4.060921659120844e-25)
(-7.856886479533372e-05 1.121586495980383e-05 1.184173038183522e-25)
(-0.0001026074167505991 1.042864341235713e-05 5.445827324228785e-27)
(-0.0001220276860650731 8.589769555700778e-06 3.34192408025853e-27)
(-0.0001356864583778898 5.885030368019792e-06 6.225558223194396e-26)
(-0.0001446738490838303 3.109600209302341e-06 1.773483295658706e-25)
(-0.0001504097207782142 8.583694130814885e-07 -1.32720407069845e-25)
(-0.0001526220048049782 -1.870221178633156e-06 3.011309821539201e-25)
(-0.0001542363000043684 -2.224826596364734e-06 -3.420221548537e-26)
(-0.0001535235716361643 1.605432615153717e-06 -9.804456374575012e-26)
(-0.0001583028460819456 5.338288550051238e-06 3.727106904412074e-26)
(-0.0001648359879882425 7.019809116604274e-06 5.904001439380992e-26)
(-0.000172468522999317 6.181218822675453e-06 -2.417805780049873e-25)
(-0.0001798712202425205 3.52612556051184e-06 1.189698014320925e-25)
(-0.0001851854848420498 3.966829481510383e-07 -1.3345536083694e-26)
(-0.0001880593493733992 -1.571571883219222e-06 1.864368449935087e-25)
(-0.0001885518118115479 -2.03434689991592e-06 -2.058500720747258e-26)
(-0.0001875228353233549 -1.420763714959517e-06 1.580904598252947e-26)
(-0.0001853767746378023 -7.307095414760661e-07 8.613140270542667e-26)
(-0.0001814385977842674 -1.218493136965178e-06 1.143331407668492e-26)
(-0.0001754195762713498 -2.556755869466319e-06 7.254753792604269e-26)
(-0.0001671516896114581 -4.128967322246828e-06 3.151538016013122e-26)
(-0.0001564973592623664 -5.577653714616841e-06 -3.420997001485772e-26)
(-0.0001438591130083676 -7.121962573757402e-06 6.277689076844135e-26)
(-0.000129499311310835 -8.357249672604214e-06 5.103067329180352e-26)
(-0.0001138005124132433 -9.185902697713922e-06 1.605486380427593e-26)
(-9.723767773591176e-05 -9.551708586865696e-06 -1.804580068067537e-26)
(-7.985258206542678e-05 -9.858887715794519e-06 -4.078872218267246e-26)
(-6.162952500161908e-05 -9.981303597013992e-06 -2.256948475719032e-26)
(-4.250560577612153e-05 -1.002072328499948e-05 7.865636184992289e-26)
(-2.252738803600689e-05 -1.005179924103842e-05 -1.523931941487524e-26)
(-1.616070708405339e-06 -1.036886133530174e-05 -9.358171106712942e-27)
(2.009662306546942e-05 -1.090634778788935e-05 3.07578347887168e-26)
(4.253051848084319e-05 -1.164602925723444e-05 -2.900873852237974e-26)
(6.536732791141148e-05 -1.248084530263641e-05 -1.455801642631031e-27)
(8.879641553202029e-05 -1.308707936760117e-05 -2.732284840904514e-28)
(-2.145928595287157e-06 4.886004876396884e-07 -7.29207080776881e-25)
(3.270785315329691e-06 1.693013383672622e-05 6.626601016107686e-25)
(-1.855736052969642e-05 2.419917222080514e-05 -8.349880404097289e-25)
(-3.607246635762357e-05 2.95297408592306e-05 -9.468925223822155e-26)
(-5.512909187033423e-05 3.02927356120729e-05 2.255735347023925e-25)
(-7.796971079926454e-05 3.98399850810066e-05 -6.624410451569995e-25)
(-0.0001009083249280248 3.046774776901978e-05 -2.64766108984756e-25)
(-0.0001216293745095344 2.291495647949715e-05 -4.755293332100219e-26)
(-0.0001394918193471925 1.686604277389847e-05 -9.696421256989789e-25)
(-0.0001535798417722491 1.198548299966354e-05 3.815676612714032e-25)
(-0.0001639975677823565 8.142096969785177e-06 -1.174965277413828e-25)
(-0.0001699024994525588 4.956162204723301e-06 -5.859823805814832e-25)
(-0.0001715703471899091 3.205394704712912e-06 -2.639727006606471e-25)
(-0.0001710748622096856 3.091623755273163e-06 6.397147311184202e-25)
(-0.00016973207663736 4.689621781877966e-06 3.748597585638341e-26)
(-0.000167979660596269 7.013745112055498e-06 2.652681062644987e-25)
(-0.0001670584289008567 8.800293737073207e-06 4.713450291695664e-25)
(-0.0001683323205711483 8.960980627655324e-06 1.645078391170292e-26)
(-0.0001721794202176932 7.638371204794368e-06 1.075127064855901e-26)
(-0.0001780057057627732 5.194340771002739e-06 -5.117146393932449e-26)
(-0.0001839885637055086 2.062059871584635e-06 1.104592632069265e-25)
(-0.0001892597224218896 -1.510993607137483e-06 -1.12536266517172e-25)
(-0.0001908107177955522 -5.163388218752284e-06 -1.049290967789248e-25)
(-0.0001883506051860015 -9.32505006718067e-06 -1.289811187204037e-26)
(-0.0001816694214327683 -1.276693441867262e-05 -1.617424241552935e-25)
(-0.0001705991650216595 -1.575161773894103e-05 -1.737010872341383e-26)
(-0.0001556908864223026 -1.82203199930875e-05 1.21106421649982e-25)
(-0.0001386846906064516 -2.01260408470188e-05 -4.777015069038213e-26)
(-0.000120430235995208 -2.172720318030859e-05 -9.096740870678113e-26)
(-0.000101768408616937 -2.312827241798191e-05 -3.03930493981745e-26)
(-8.424774565106338e-05 -2.436679137493679e-05 3.543410368163265e-26)
(-6.789092903606074e-05 -2.582566701649011e-05 5.864584497146137e-26)
(-5.128843463576399e-05 -2.766653901215313e-05 -5.314301441481111e-26)
(-3.448549028326094e-05 -2.946778003164867e-05 -1.259852557218782e-25)
(-1.758104544204198e-05 -3.138553400206427e-05 -2.432640882584065e-26)
(9.629685520155894e-07 -3.322775693771976e-05 -3.789168116672089e-26)
(1.971260388747589e-05 -3.429053419183271e-05 -7.047794592134922e-27)
(4.063206157900551e-05 -3.462765336051766e-05 3.891741252336354e-26)
(6.230906938526406e-05 -3.471523793790543e-05 3.497792130098361e-27)
(8.61946168754919e-05 -3.436755252133912e-05 6.769340561081906e-27)
(-1.392995556973969e-06 3.975028146008023e-06 5.527958970560638e-25)
(-3.943447831296349e-06 1.921282657455811e-05 -1.775828461732498e-25)
(-1.022446605434294e-05 3.611944993604782e-05 -2.590015425881519e-25)
(-2.567324468098154e-05 4.911187132116131e-05 -6.301926548670408e-25)
(-4.666184423738403e-05 5.604117278061624e-05 9.18264065952117e-25)
(-7.285013731918049e-05 5.869690489097918e-05 -7.460370784838425e-26)
(-9.842720709656516e-05 5.501675261462166e-05 4.624009834129123e-25)
(-0.0001232523827227378 4.813097777611837e-05 -7.9294157654756e-26)
(-0.0001501144097537434 3.855803435200196e-05 1.275109639806568e-24)
(-0.0001666269321450093 2.735663031424802e-05 -3.03791806016004e-25)
(-0.0001770040134380178 1.775406691430199e-05 1.190853795697101e-25)
(-0.000182629224873213 3.158945751222519e-06 3.687153348619644e-25)
(-0.0001832478746207701 5.265733747975028e-07 4.164318035106462e-25)
(-0.0001815431003905948 5.10715143460006e-07 -1.611830006687471e-25)
(-0.0001776942432006747 1.656605123215548e-06 1.184589945122318e-25)
(-0.0001732528813362763 4.097703268209293e-06 -1.391479923174928e-25)
(-0.0001699251430757037 7.730697443939204e-06 -9.445137698079426e-26)
(-0.0001683932530044306 1.035137139508838e-05 -1.617893207216778e-25)
(-0.000169274537173827 1.101334739534499e-05 2.875247046730202e-25)
(-0.0001728546171416645 1.00791096303531e-05 1.034814056841448e-25)
(-0.0001784373775595818 7.722458919397392e-06 -1.193891734162965e-25)
(-0.0001847842654639967 4.14064813668972e-06 -1.342886423315452e-26)
(-0.000190270375261002 -6.361011295738438e-07 7.585068689412936e-26)
(-0.0001932194646541437 -9.355688983006202e-06 -3.481784135656332e-25)
(-0.0001923804324779654 -1.873039862042153e-05 -3.989767422966754e-25)
(-0.0001865696170455502 -2.812941014784736e-05 1.015396317733929e-25)
(-0.0001752014722019532 -3.621966156379733e-05 -3.026174216150706e-25)
(-0.0001586683889749587 -4.196431203206542e-05 -1.642907406237973e-25)
(-0.000137668532132868 -4.566670051563587e-05 2.921704533065084e-25)
(-0.0001139638194272287 -4.735284490651966e-05 -7.188534935410898e-26)
(-8.658302674983383e-05 -4.401990275721121e-05 6.723618195782823e-26)
(-6.066980454209573e-05 -4.337617482797381e-05 2.737821007844602e-26)
(-3.415263483398592e-05 -4.315121392072762e-05 2.825780319773141e-25)
(-1.245200769206144e-05 -4.317381306245862e-05 9.439772573768421e-26)
(7.241293632709237e-06 -4.350590490257122e-05 -2.968453419754302e-26)
(2.399879352558448e-05 -4.515315241521518e-05 -1.243286001925387e-25)
(3.925402449672021e-05 -4.81828891332676e-05 -9.417264359084551e-26)
(5.444753757766168e-05 -5.199961016951024e-05 -2.565431643928812e-26)
(6.901669822279025e-05 -5.687055205875187e-05 1.421858233542042e-26)
(8.851291634084257e-05 -5.993743745510994e-05 -2.550265087723625e-26)
(-9.000552583188632e-07 5.5625159539104e-06 -3.753669349410362e-25)
(-3.773524614768029e-06 2.486231016394231e-05 -4.597597053883837e-25)
(-1.023681308224643e-05 4.719563007841152e-05 5.941259430052376e-25)
(-2.47993714282411e-05 6.550990814985905e-05 3.490180544680938e-25)
(-4.589538203660565e-05 7.791410541469402e-05 -5.639846801951428e-25)
(-7.062450090082718e-05 8.474022665167065e-05 1.394232517668067e-24)
(-9.808534759118237e-05 8.302459221317281e-05 -3.780649385349384e-25)
(-0.0001268548674962186 7.377290352564819e-05 3.48193785003533e-25)
(-0.0001507855076563297 6.015524167761228e-05 -4.422362227889259e-25)
(-0.0001737307158495528 4.216737513580904e-05 3.470072777044484e-26)
(-0.0001865748708227371 2.542936671061613e-05 1.536155135696854e-25)
(-0.0001956146578855343 1.093635098115345e-05 -4.801070995088549e-25)
(-0.0001974877189618949 8.43329059530903e-07 -7.235278192950138e-25)
(-0.0001937692914578606 -3.428763190283162e-06 3.804011970485366e-26)
(-0.0001857735386078468 -3.780952774390349e-06 2.832748000094523e-26)
(-0.000177267145906272 -1.115106950442082e-06 3.79994890132103e-25)
(-0.0001698848510984664 3.814841672677139e-06 -2.394074351350519e-25)
(-0.0001636327624546577 6.512216675149246e-06 -2.567362177288467e-25)
(-0.0001635976016866333 1.246010904833836e-05 -4.920037676207303e-26)
(-0.000168046479653003 1.50977321815088e-05 -5.888779275292636e-25)
(-0.0001754075600005548 1.471193129559898e-05 -1.262220343258368e-25)
(-0.0001836915902507659 1.081673277891715e-05 3.186201532763745e-25)
(-0.0001915745781160896 3.413730600227135e-06 -6.043662659904382e-26)
(-0.0001975921710944934 -7.174769342635419e-06 4.173605002692623e-25)
(-0.000200394700992383 -1.980738321146734e-05 3.539669706117802e-25)
(-0.0001982339179589037 -3.354056048253018e-05 -2.773155912104874e-25)
(-0.0001903781879473274 -4.651277050644075e-05 2.642774237786086e-25)
(-0.0001765069431111252 -5.680165762396899e-05 3.81618046341872e-25)
(-0.0001572292116719886 -6.507543261891057e-05 -1.57420540598433e-25)
(-0.0001325061011615794 -7.13608465471571e-05 3.339033975532862e-25)
(-0.0001027987862324063 -7.49478500498939e-05 -2.883543058982025e-25)
(-7.024457298139729e-05 -7.622191565066162e-05 1.330244258966953e-26)
(-3.730070000315346e-05 -7.553865262092848e-05 -8.050295297643058e-27)
(-6.152723858520681e-06 -7.061910249487216e-05 4.049462700797931e-28)
(2.1604058492977e-05 -6.798498152911554e-05 8.170696123897992e-26)
(4.470297652513646e-05 -6.834360370068316e-05 1.378954191940168e-25)
(6.299417071331656e-05 -6.504797409560479e-05 9.05697086227112e-27)
(7.808814017926971e-05 -6.485041865151083e-05 -1.329987977903734e-25)
(9.038178109541777e-05 -6.79636261455999e-05 1.762074010424746e-26)
(0.0001049483866926382 -7.246476183456467e-05 2.511063224912025e-26)
(-8.593001385512578e-07 7.651316056338797e-06 -9.333290331667586e-25)
(-3.949664026544521e-06 3.068965389953408e-05 1.656288618523458e-24)
(-1.135779077576588e-05 5.869107550702931e-05 1.032507571872864e-24)
(-2.631668584565674e-05 8.404029773154198e-05 -4.319952434358872e-25)
(-4.824634268413426e-05 0.0001025321190913265 6.741722622747189e-25)
(-7.403640187515182e-05 0.0001123013855055834 -7.962710773618323e-25)
(-0.0001023024938982055 0.0001116780896536939 -7.657957359923335e-26)
(-0.0001308826615203199 0.000101111165747031 -4.736081167302433e-25)
(-0.0001553034742356261 8.377209675791977e-05 -7.314379121748027e-25)
(-0.000176624788122245 6.140658840878756e-05 4.479702734151914e-25)
(-0.0001908400096060057 3.795023696585934e-05 -1.243400772958984e-25)
(-0.0001998064013563449 1.629654749893902e-05 2.716445036623554e-25)
(-0.0002023292768787424 -6.193552710254908e-07 8.883660765182108e-25)
(-0.0001991728315767659 -1.11263142533178e-05 -6.291029340226245e-25)
(-0.0001911614037616225 -1.432857481463684e-05 -1.812463572995038e-25)
(-0.0001815045264852019 -1.179879045437398e-05 -1.716330809108831e-25)
(-0.000172901859190393 -4.854496858713354e-06 1.665437152636515e-25)
(-0.0001668309353294094 3.772058778933658e-06 -1.08168009504137e-24)
(-0.000165730167436336 1.457022630357902e-05 -1.081722867033173e-24)
(-0.0001695895062791128 2.125982337753446e-05 4.104587673528931e-25)
(-0.0001764092985433134 2.331101583827209e-05 5.605200172798735e-27)
(-0.0001880017208204619 2.145911187364024e-05 -2.032047988153803e-25)
(-0.00019942550442808 1.274289556541299e-05 -6.167013810881642e-25)
(-0.0002091280956906573 -9.520315185875443e-08 3.251590171056739e-26)
(-0.0002163517734919772 -1.742244984867506e-05 5.6679240427938e-25)
(-0.0002142202888400766 -3.834381958176044e-05 -3.275150237240657e-26)
(-0.000211582710608737 -5.829492346581565e-05 -7.69320499825582e-26)
(-0.0001903925090215424 -7.701089151340347e-05 -2.335468946173581e-25)
(-0.0001654028339854415 -9.070119731397103e-05 5.673151502591482e-26)
(-0.0001356468806055582 -0.0001037449128327602 -3.259194703851657e-25)
(-0.0001030079806830983 -0.0001073827782678884 6.54952816530429e-26)
(-6.944814948067789e-05 -0.0001090175636238988 -8.174541590275809e-27)
(-3.644221969188433e-05 -0.0001070720996056428 -4.351633161672715e-25)
(-6.226504566620114e-06 -0.0001009757878808977 2.325342365598585e-25)
(2.129748007421083e-05 -9.279386745196809e-05 -1.36869852879862e-25)
(4.427566874395527e-05 -8.606588671056981e-05 1.227280430377388e-25)
(6.35592086136098e-05 -8.063077080529903e-05 6.255756240511151e-26)
(8.070034314024064e-05 -7.946366774062342e-05 2.295829065371021e-25)
(9.641342808189845e-05 -8.481353256748567e-05 -7.481150776888433e-26)
(0.0001138466237378792 -8.773462635115223e-05 -4.144372125491748e-26)
(-8.566544170774439e-07 9.411784614580299e-06 1.269162049509809e-24)
(-4.11503095369465e-06 3.621842986087651e-05 -1.748057029706074e-24)
(-1.213634472954604e-05 7.010076416485155e-05 -7.526398557535067e-25)
(-2.751635002798597e-05 0.0001017910580107123 9.491160870533655e-25)
(-4.96869789102513e-05 0.0001257989667077111 -9.114273412162656e-25)
(-7.636088237109643e-05 0.0001387532953712015 -7.092696561348054e-25)
(-0.000105239595190374 0.0001391997892683051 -5.890481065857148e-25)
(-0.0001338939203838347 0.0001273704610782257 5.4960716812301e-25)
(-0.0001592431002429293 0.0001061306644142514 2.874849101764158e-25)
(-0.0001798812770186276 7.877138643401662e-05 -1.301472665937189e-24)
(-0.000194216502040042 4.925272819960731e-05 4.020675296566299e-26)
(-0.0002020513214547495 2.17600342357171e-05 -2.098293939306294e-25)
(-0.0002036496391972756 -4.571340793316309e-07 -1.618153945383279e-25)
(-0.000200218323830555 -1.505325530364568e-05 2.378170244960068e-25)
(-0.0001935590343679067 -2.133145802677533e-05 2.808293932711762e-25)
(-0.0001854733139632525 -1.966967596412809e-05 -6.588501262755479e-25)
(-0.0001780910488316992 -1.141320506068315e-05 2.358477540179714e-25)
(-0.0001739266581770051 7.658279581591145e-07 1.239778601112993e-24)
(-0.0001734321666610015 1.449354010675655e-05 4.55867306553973e-25)
(-0.0001772242408531633 2.61732607367019e-05 1.755544695554881e-25)
(-0.0001851157162165633 3.28620988943518e-05 6.054782848190158e-25)
(-0.0001969078032802632 3.306006759215653e-05 -5.674142533383066e-25)
(-0.0002087229340470069 2.463413802073944e-05 6.379722445364902e-25)
(-0.0002202831616078635 9.240780492295439e-06 3.10004095627432e-25)
(-0.0002263199494382443 -1.398831777102279e-05 -2.916095083614175e-26)
(-0.000227350728570031 -4.013683804914245e-05 -3.701174281544876e-25)
(-0.0002197092554022097 -6.941803557311382e-05 7.078870780630695e-26)
(-0.0002053605462935082 -9.664936031823201e-05 -2.826503276817875e-25)
(-0.0001814902617096828 -0.0001199870285327712 -9.381630396072493e-25)
(-0.0001509384437897919 -0.0001356842917613823 -1.566934755651719e-25)
(-0.0001151964222714837 -0.0001429556715822203 3.11799852887128e-26)
(-6.961930499407086e-05 -0.0001438491879260813 -4.674632725327227e-26)
(-3.88123195025341e-05 -0.0001394142641232941 1.482099606360502e-25)
(-2.91321016552223e-06 -0.0001299755666362219 -5.146238011665579e-25)
(2.801895818671257e-05 -0.0001190658578634595 2.163550115249512e-25)
(5.272036577421916e-05 -0.0001089501620700512 -9.648227415138251e-26)
(7.757144527959108e-05 -0.0001012450105776293 3.284953158769569e-26)
(9.372159309158369e-05 -9.709669082384216e-05 -2.413917775412884e-25)
(0.0001077025471872676 -9.837007763703891e-05 7.637533473518939e-26)
(0.000117246822321525 -0.0001033458362569464 -1.366570232866302e-26)
(-8.311445552442234e-07 1.12584780606457e-05 -8.007340935858812e-27)
(-4.145916110230189e-06 4.27282446010207e-05 4.318616727038084e-25)
(-1.266412498888959e-05 8.287945053010066e-05 -1.053710481294488e-24)
(-2.866446847756408e-05 0.000121087449885156 -2.668491188158599e-24)
(-5.135599157927238e-05 0.0001509177701714543 1.936632056934744e-25)
(-7.87527916797432e-05 0.0001676242980357632 1.321333990492635e-24)
(-0.0001086420787108137 0.000168836273218221 9.684260726118381e-25)
(-0.0001379363554718555 0.0001551345803848724 1.431983523517191e-24)
(-0.0001638182469443881 0.0001295293001634932 4.979182519434488e-25)
(-0.0001845790079804893 9.617892495780067e-05 5.935831666438463e-25)
(-0.0001987007401565603 5.99936145963447e-05 -6.817163687275225e-25)
(-0.0002062135545903897 2.587277026504086e-05 -5.899885400857338e-25)
(-0.0002073823062841764 -2.060161977433188e-06 1.13907477125747e-25)
(-0.0002038724183324347 -2.084547689371396e-05 6.800595397951818e-25)
(-0.000197379089094255 -2.909136452674768e-05 -2.774421081074261e-25)
(-0.0001899295777436445 -2.713223829042013e-05 5.117472428369921e-25)
(-0.0001842689398420659 -1.659708081812108e-05 -4.222889715215524e-26)
(-0.0001812683498857433 -6.865699673089443e-07 -2.149460656593964e-25)
(-0.0001832021300315935 1.737554402023435e-05 -3.499903105290198e-25)
(-0.0001887937004151922 3.315183331620086e-05 -2.620707898472814e-25)
(-0.0001987060569885069 4.332029656033231e-05 -6.380929547358096e-25)
(-0.000210775589903486 4.4944997434147e-05 6.378211624928426e-25)
(-0.0002228437694414197 3.613077840763202e-05 3.885014776274673e-25)
(-0.0002334987986476649 1.754901720952728e-05 -4.42251024107297e-25)
(-0.0002385459200745051 -1.071796113888562e-05 -2.823308960666826e-25)
(-0.0002386442503671393 -4.417173565632107e-05 5.743652476384024e-25)
(-0.0002293816383383162 -8.150562288389102e-05 -2.529634368618758e-26)
(-0.0002134481972263515 -0.0001164166576691929 -3.04684191218117e-25)
(-0.0001884869914114806 -0.0001469406584791125 3.384553915871269e-25)
(-0.0001573252510253349 -0.000169307725650985 1.591093180806759e-25)
(-0.0001221674648983858 -0.0001820105941784021 3.593746520591584e-25)
(-8.201391269328766e-05 -0.0001855227596033326 -2.006214906476145e-25)
(-4.401883088481323e-05 -0.0001772441455335838 2.658848982825003e-25)
(-5.100014863681707e-06 -0.0001655103952600074 1.559402334124573e-25)
(2.712115948061122e-05 -0.0001486481241816226 -2.731390793440611e-25)
(5.554133851453838e-05 -0.0001342938582295819 1.608871991695424e-27)
(7.636553971775229e-05 -0.0001204993476509605 -9.411683938347771e-26)
(9.439543469570033e-05 -0.000112269744463004 9.498476478392345e-26)
(0.0001082138031048819 -0.000109462530961156 1.794865147820061e-26)
(0.000122079247885575 -0.0001147176579566364 3.890845690964507e-26)
(-8.409811415183653e-07 1.307533885700423e-05 -1.089398638064228e-24)
(-4.239432475079845e-06 4.942716992835166e-05 1.947061243032332e-24)
(-1.327043778943884e-05 9.575398197834146e-05 1.227642834468114e-24)
(-3.000707609029178e-05 0.0001402990580384341 2.310808705021615e-24)
(-5.312774826074644e-05 0.0001758957634194292 -5.681953289339559e-26)
(-8.10453335453399e-05 0.0001963915889560427 -8.709059764351889e-26)
(-0.0001118132174780157 0.0001984273867860646 -6.331901389066926e-25)
(-0.0001419232671708366 0.0001828077272434636 -1.811149552504208e-24)
(-0.0001684510214197143 0.0001529318836413165 1.007162714305157e-25)
(-0.0001896219083311548 0.0001137235263370744 -1.799061500015785e-25)
(-0.0002039755692212453 7.096025151870282e-05 6.515990445313739e-25)
(-0.0002115420751079366 3.042410415264056e-05 -2.471039555723941e-25)
(-0.0002127224675918842 -2.916486631795815e-06 -1.098429686079922e-24)
(-0.0002093098792630413 -2.543517267273931e-05 -7.010093263100819e-25)
(-0.0002031381402935788 -3.537387805513097e-05 1.9449549112894e-25)
(-0.0001965258121171785 -3.294728688687824e-05 2.682523154229984e-25)
(-0.0001918770318239712 -2.006108143426135e-05 -1.243225477775502e-25)
(-0.0001903888123876154 -3.665912454243402e-07 5.26125867990176e-25)
(-0.0001937154260502927 2.195304733922072e-05 3.544083966764362e-25)
(-0.0002010610698434324 4.173738814788766e-05 5.8266737954687e-25)
(-0.0002123604356939544 5.475290528943529e-05 8.195864115857125e-25)
(-0.0002253567317227476 5.731849070478634e-05 -1.163304143759567e-24)
(-0.0002380661882388805 4.730906472785029e-05 -5.256357716144095e-25)
(-0.0002482574356809666 2.498819546004116e-05 -7.207662675286506e-25)
(-0.0002528784255937056 -8.860431800229692e-06 -5.384460319437361e-25)
(-0.0002512385570992813 -4.97222223642448e-05 -5.0905767441264e-25)
(-0.0002408097533182295 -9.472274051133219e-05 2.725065945080235e-25)
(-0.0002227531294629064 -0.0001376435732682946 4.181515132862712e-25)
(-0.0001965494509512417 -0.0001752340140891695 8.790816578014562e-25)
(-0.0001641458455038359 -0.0002033032356892344 -8.863229781423693e-26)
(-0.000127703460922202 -0.0002191506170127263 5.60135182009313e-26)
(-8.817886124213446e-05 -0.0002234806187187146 5.331872259332144e-25)
(-5.040682734070175e-05 -0.0002149091795190481 6.070877417699045e-26)
(-1.321993668205145e-05 -0.0002002637621991959 1.525682763103528e-25)
(1.849401684426571e-05 -0.0001791597650441542 4.376425626450134e-25)
(4.570112686554405e-05 -0.0001587320031682425 -1.328139317989308e-25)
(6.761040853372756e-05 -0.0001401804163623638 1.08238992708235e-25)
(8.695973565014778e-05 -0.0001289057979430474 -2.930474601699324e-25)
(0.0001018602167016279 -0.0001245454628113574 -9.607328192656049e-26)
(0.0001193989961877849 -0.0001299734594802234 -3.215217722193242e-26)
(-8.532721525119362e-07 1.487338310082736e-05 1.527789807566391e-24)
(-4.31723105443043e-06 5.649032742137495e-05 -6.601599646013064e-24)
(-1.379777181666439e-05 0.000109409896326205 -4.077278705616148e-25)
(-3.137543937158582e-05 0.0001602958768585532 -2.196322742490764e-24)
(-5.504209798063702e-05 0.0002016374460054515 2.247152323765456e-25)
(-8.335340027884678e-05 0.000226224579423027 -1.5567182532981e-24)
(-0.0001149967199140353 0.0002293390934908099 7.138475705111004e-25)
(-0.0001462274252452168 0.0002116882687388269 2.258905027637806e-25)
(-0.0001737154750494968 0.0001772372355888575 -2.252818843620337e-24)
(-0.0001956230274636965 0.000131756093810635 -3.484685099359671e-26)
(-0.000210508167405529 8.199833372891401e-05 2.142663350032533e-24)
(-0.0002183656211602657 3.475543554386945e-05 1.15179798412171e-24)
(-0.0002197300717755813 -4.140622608927872e-06 1.325268252769718e-24)
(-0.0002164786978704431 -3.03632706819957e-05 -1.283950003168294e-24)
(-0.0002106187851916899 -4.174970525868649e-05 -7.080967917011192e-25)
(-0.000204555071697923 -3.84568331327697e-05 1.257388734589111e-24)
(-0.0002007163054336537 -2.272987790187818e-05 -5.374082967509709e-25)
(-0.0002003813973887902 1.112085622776692e-06 -6.811735178768785e-25)
(-0.0002050466036494987 2.799408273347175e-05 6.742078296529853e-25)
(-0.0002138954653603217 5.184271556904543e-05 -2.354394747094977e-24)
(-0.0002265927541330892 6.754996302003054e-05 1.511073025513473e-24)
(-0.0002407774799219852 7.077067516425921e-05 1.442045193353915e-24)
(-0.0002542413490081392 5.896156452379659e-05 2.383962022771009e-25)
(-0.0002647803684780709 3.245802240217511e-05 1.511270014148774e-24)
(-0.0002691788543623965 -7.721932812974217e-06 6.328701144287141e-25)
(-0.0002669782488428107 -5.623666227618022e-05 9.402059052299566e-26)
(-0.0002555293306750164 -0.0001096509272623954 -3.751255024664029e-25)
(-0.0002362625854748807 -0.0001606409017915348 -2.07596396192117e-26)
(-0.0002087663281511904 -0.0002052308529442799 -1.552508752982758e-24)
(-0.0001749829341641844 -0.0002384983859329869 4.372317522460557e-25)
(-0.000137738680258749 -0.0002571991259518102 8.920948186510607e-26)
(-9.753158537786925e-05 -0.0002624004091930903 -2.685640811722271e-25)
(-5.994393255345387e-05 -0.0002522723437769111 2.72837752426983e-25)
(-2.280498032171126e-05 -0.0002342548096096616 4.499877253956907e-25)
(8.259235342460429e-06 -0.0002082227881509558 -2.32494660187312e-25)
(3.611922201475536e-05 -0.0001832175165816192 3.14492848166384e-25)
(5.870358021483448e-05 -0.0001607299323402221 1.528894875592446e-25)
(8.02921025340062e-05 -0.0001472558505699705 5.662528452109992e-27)
(9.749927704072445e-05 -0.0001419614778213156 1.002112920974604e-25)
(0.0001190131647469383 -0.0001483266127600533 6.922969681858587e-26)
(-8.713694320783944e-07 1.665210639376811e-05 3.773854326065769e-25)
(-4.422340038704358e-06 6.387345314931944e-05 5.715861610779591e-24)
(-1.432741901527043e-05 0.0001238109463577672 5.709545655284321e-26)
(-3.282880130111072e-05 0.0001809566312049662 2.052683181560795e-24)
(-5.717837237561227e-05 0.0002277337100660682 3.785411580822441e-25)
(-8.569590893964931e-05 0.0002565068825788742 1.196160885551217e-24)
(-0.0001179998300804852 0.0002610559758917872 -1.584802034580449e-25)
(-0.0001505426855871245 0.0002415413668549196 -1.556100848005614e-24)
(-0.0001793668958409954 0.0002024781841083417 3.274608547918265e-24)
(-0.000202339694667686 0.0001505867230593967 3.615764520589792e-25)
(-0.0002180111277404345 9.367263254132641e-05 -1.135258780934165e-24)
(-0.0002263930707411855 3.961102582795652e-05 -1.575438742778461e-24)
(-0.0002280888977353443 -4.853165293154343e-06 -1.368062402748313e-24)
(-0.0002251139995815363 -3.469659424208867e-05 2.325980814010956e-24)
(-0.0002195801864364663 -4.737583173517911e-05 3.644913688377135e-25)
(-0.0002140227300289364 -4.304269689748712e-05 -5.157449554424363e-24)
(-0.0002109302270530066 -2.428461259487836e-05 7.180996829076852e-26)
(-0.0002116131787026347 3.856773524911029e-06 1.167037249203769e-24)
(-0.0002175420783974441 3.541518131508598e-05 -2.06977109347615e-24)
(-0.0002277730034823592 6.330403353617703e-05 1.885173359557333e-24)
(-0.0002419184071622896 8.155307773872881e-05 -2.825667113078999e-24)
(-0.0002573747904802771 8.513417406680419e-05 -1.468057060840074e-24)
(-0.0002719161660575139 7.118887650708838e-05 -5.238673880079757e-25)
(-0.0002831459705609137 4.010406004338692e-05 -2.057456427538194e-25)
(-0.0002878530611705441 -6.765361580173949e-06 6.931178105610528e-26)
(-0.0002855745644210958 -6.332269060941301e-05 1.054946422618212e-24)
(-0.0002735719012315113 -0.0001254304408366082 -4.646142698591879e-25)
(-0.000253498899658857 -0.0001846296867021439 -9.354020528585156e-26)
(-0.0002248026204473336 -0.0002363328279899346 1.384447005997489e-24)
(-0.0001898013891006178 -0.0002746775880531522 5.545224887009236e-25)
(-0.000151346047770435 -0.000296228809181024 -2.652873091686764e-25)
(-0.0001100908193807655 -0.0003017329391885792 4.472269635307656e-25)
(-7.180646614899413e-05 -0.0002897424680092494 -4.019012773052428e-25)
(-3.387317965040216e-05 -0.0002682984116793002 -4.154034527899298e-25)
(-2.395711160859612e-06 -0.0002379672401767425 2.442408858508538e-25)
(2.694975749315965e-05 -0.0002090662133958776 -7.14407708609102e-25)
(5.106934046495798e-05 -0.0001834128813861119 -1.285411798843809e-26)
(7.544829928016074e-05 -0.0001682651253569716 2.433129964173873e-25)
(9.544306570041793e-05 -0.0001628176948330184 -4.099022027526998e-26)
(0.0001208359639804729 -0.0001706808538962182 1.05768213569813e-26)
(-8.929476015666071e-07 1.846861699988612e-05 -9.827535344958563e-25)
(-4.551283432977697e-06 7.158792610992753e-05 1.77820992968277e-24)
(-1.487716818838112e-05 0.0001388590319176582 1.052977524624451e-24)
(-3.432633031223159e-05 0.0002023328263086968 1.362959391966024e-24)
(-5.956050512211934e-05 0.0002542586395524077 -1.171618171209808e-24)
(-8.818782357834845e-05 0.0002872845787001001 1.04468004150704e-27)
(-0.0001206643021214722 0.0002938708676273541 -2.982220934834039e-25)
(-0.0001544537895127876 0.0002728830556025744 2.186401092912666e-24)
(-0.0001851616608384449 0.0002291035419373227 -3.542187762912497e-24)
(-0.0002098757354034074 0.0001704914521522261 -6.656801386860535e-26)
(-0.0002268432965197161 0.0001061161537063319 -8.351138538262795e-25)
(-0.0002359853554916764 4.494833628665335e-05 1.672400718501888e-24)
(-0.0002379933510693111 -5.334527502481499e-06 4.633633714157909e-25)
(-0.0002351960450899338 -3.89113415844908e-05 -8.060157744840665e-25)
(-0.000229881182144803 -5.280386042562924e-05 -3.993553984640755e-26)
(-0.0002247479382003674 -4.721409007177402e-05 2.917078972510413e-24)
(-0.0002223084388142347 -2.513760374114186e-05 -1.160449956104072e-25)
(-0.000223958635776028 7.605558133062162e-06 -3.084478492478735e-25)