/*--------------------------------*- C++ -*----------------------------------*\
| =========                 |                                                 |
| \\      /  F ield         | OpenFOAM: The Open Source CFD Toolbox           |
|  \\    /   O peration     | Version:  2206                                  |
|   \\  /    A nd           | Website:  www.openfoam.com                      |
|    \\/     M anipulation  |                                                 |
\*---------------------------------------------------------------------------*/
FoamFile
{
    version     2.0;
    format      ascii;
    arch        "LSB;label=32;scalar=64";
    class       surfaceVectorField;
    location    "3";
    object      ddtCorrDdt0(Uf);
}
// * * * * * * * * * * * * * * * * * * * * * * * * * * * * * * * * * * * * * //

dimensions      [0 1 -2 0 0 0 0];

internalField   nonuniform List<vector> 
35915
(
(-2.478628894578973e-06 2.758031504045204e-06 6.560366811040061e-26)
(-1.476167525101579e-06 2.466442920937821e-06 -3.848341861813213e-25)
(-1.172458287578071e-05 3.055461059412846e-06 -3.442151306698535e-26)
(-1.164326049574844e-06 9.23503889326452e-06 3.090884885343946e-25)
(-2.522057704854655e-05 6.245075261149686e-06 1.22782887988943e-25)
(-1.777250841253898e-05 1.348685684916338e-05 -3.724486938863451e-25)
(-4.43221061496937e-05 9.352667397773149e-06 -1.362836537089811e-25)
(-3.489692349395467e-05 1.909422719227266e-05 1.533791898225983e-26)
(-6.574610229198635e-05 1.10009991554185e-05 -1.438375571324903e-25)
(-5.479891481123213e-05 2.141856376612382e-05 -8.155579891694125e-26)
(-9.165028198452474e-05 1.081772209715328e-05 6.193159224246696e-26)
(-7.839269625948724e-05 2.590058686445397e-05 -2.685058326803589e-25)
(-0.0001124387984432935 9.504141073342162e-06 4.393874835870771e-27)
(-0.0001018963516099932 2.07864617558852e-05 -1.292147706848807e-25)
(-0.0001285871855468435 7.231928324347535e-06 3.279873720850938e-26)
(-0.0001219794210400036 1.614763578262059e-05 -2.171609586067962e-26)
(-0.0001402217872763813 4.491561696818545e-06 1.198019285224675e-25)
(-0.0001377498052504976 1.163493601467341e-05 -4.455027901324674e-25)
(-0.0001478084940697222 1.978063016166529e-06 2.231403139878279e-26)
(-0.0001492947661019861 7.58787837269961e-06 3.04552619151637e-25)
(-0.00015225378664101 -5.119267491635368e-07 8.420519127703212e-26)
(-0.0001573764521270157 4.447140283790365e-06 -1.440881491748834e-25)
(-0.0001535896212315816 -2.053454148894639e-06 1.334644569762654e-25)
(-0.0001614377789890029 1.338149849167546e-06 -1.033946823673481e-25)
(-0.0001541362920062639 -3.152978666621287e-07 -6.612337869303352e-26)
(-0.0001630797113161772 5.493750407535177e-07 -1.5094111498837e-25)
(-0.0001565265540074518 3.466756092534174e-06 -3.038677895599583e-26)
(-0.0001624747604435641 2.393194565402974e-06 2.7681000835432e-25)
(-0.0001615382707132268 6.17446560114697e-06 4.815553478713445e-26)
(-0.0001641910477740685 5.014801081683909e-06 3.329292336812987e-26)
(-0.0001685881365270821 6.596452551776569e-06 -9.137022534478178e-26)
(-0.0001665786032986534 7.052970654841717e-06 1.541305522544431e-25)
(-0.0001762701846487856 4.850123873101245e-06 -6.140546511678913e-26)
(-0.0001699309695067981 7.685129903548722e-06 1.514409469548166e-25)
(-0.0001828137851525425 1.958358515043531e-06 5.281215892101423e-26)
(-0.0001742659178460655 6.546558791181474e-06 4.931700718037472e-26)
(-0.0001869883833875893 -5.900070442632138e-07 8.654561791491604e-26)
(-0.0001788436202320397 4.177457370649355e-06 7.132105895367812e-28)
(-0.0001886963066328839 -1.805071218804941e-06 8.292596107157491e-26)
(-0.0001831914429640477 1.710747956601548e-06 4.28112670441555e-26)
(-0.0001883715171737222 -1.729255896753746e-06 -2.387987052164735e-27)
(-0.0001864279652226324 -3.218377516421317e-07 4.715920731957353e-26)
(-0.0001866461512061391 -1.077070597143363e-06 5.09702121782606e-26)
(-0.0001885494137972431 -1.722070111372347e-06 -4.973997058736383e-26)
(-0.00018381954692493 -9.756107552885729e-07 4.878237233617997e-26)
(-0.0001882540887212646 -2.822753424522165e-06 -1.523597939683666e-26)
(-0.0001788918016821956 -1.88834485051194e-06 4.19904168650932e-26)
(-0.0001850593486174352 -4.923172517712493e-06 -1.295980616985733e-27)
(-0.0001717388500425411 -3.343320779220584e-06 5.203146649215411e-26)
(-0.0001787161614180369 -7.147524345208238e-06 -4.684796918075686e-26)
(-0.0001623538408511034 -4.853531162271227e-06 -1.347284211455767e-27)
(-0.0001690568523861917 -9.378497051363783e-06 6.787903836044541e-27)
(-0.0001507456264629941 -6.349806228840484e-06 1.428344670911065e-26)
(-0.0001562884609800954 -1.160054822085779e-05 4.29222862558283e-26)
(-0.0001372038434570665 -7.739390062099077e-06 5.690378466709049e-26)
(-0.0001414826133805538 -1.353270154457038e-05 9.62927289006689e-27)
(-0.0001221256021033143 -8.771151477484554e-06 3.354277330829533e-26)
(-0.0001251955656252478 -1.506770986345294e-05 -1.768924612583434e-26)
(-0.0001058563182783141 -9.368179814947655e-06 -9.954650288744364e-28)
(-0.0001080393258478893 -1.62569471384769e-05 -6.339938406993499e-27)
(-8.889309004114047e-05 -9.70448177471932e-06 -2.941726060650409e-26)
(-9.102582443583217e-05 -1.694905024125789e-05 7.682039668664601e-27)
(-7.109888330692278e-05 -9.919104785590579e-06 -3.167910640456513e-26)
(-7.418757705191512e-05 -1.777776662155867e-05 6.537477549835262e-27)
(-5.240418543268923e-05 -9.999866039570558e-06 2.804342930997259e-26)
(-5.681198709054259e-05 -1.867611700116216e-05 -3.916126480815455e-26)
(-3.28599732843046e-05 -1.003497905162824e-05 3.170853031488585e-26)
(-3.889048234281062e-05 -1.952262761436303e-05 -1.910682825432976e-26)
(-1.247599801777718e-05 -1.020893579957839e-05 -1.229874712780545e-26)
(-2.049560312216637e-05 -2.036016380821614e-05 -2.062871887462891e-26)
(8.841979655557843e-06 -1.063612862481798e-05 1.069982737908252e-26)
(-8.192437811323049e-07 -2.129308878511612e-05 -2.414837728008164e-26)
(3.092119167257304e-05 -1.127465531827289e-05 8.745521059472469e-28)
(1.935644448562459e-05 -2.205744894994133e-05 1.34716383983221e-26)
(5.35353362982862e-05 -1.206195125939246e-05 -1.523227069538484e-26)
(4.097283702091e-05 -2.258810956909468e-05 3.439398120133151e-27)
(7.669583706303948e-05 -1.27826756792268e-05 -8.645149835273789e-28)
(6.316654735471198e-05 -2.3143587104253e-05 9.529082125244884e-28)
(8.676243128776103e-05 -2.34090846224285e-05 3.236433466941478e-27)
(0.0001001550594236368 -1.314234444343104e-05 2.137941478946978e-24)
(3.216961068358221e-07 8.708579568740485e-06 -3.327383456026582e-26)
(-1.782263480302492e-06 2.131059631930418e-06 -2.26496427396722e-25)
(-8.464991244949917e-06 2.056283194738836e-05 -8.616360166931575e-26)
(-3.749135804646525e-07 1.800861489313891e-05 3.574620294833686e-25)
(-2.594376813943962e-05 2.686155901321352e-05 -4.648388262277072e-25)
(-1.445496349389505e-05 3.095362425881379e-05 -6.216234731293639e-25)
(-4.601693800287564e-05 2.990726923506461e-05 6.544206584269085e-26)
(-3.096134212361238e-05 3.915668505335485e-05 -3.616701317336137e-25)
(-6.709576962073999e-05 3.506131831072811e-05 -2.184335495659261e-25)
(-5.100695048424171e-05 4.248792229748735e-05 5.756496732987441e-25)
(-8.961275693863557e-05 3.514780903922162e-05 -4.636036744464129e-25)
(-7.554274584365114e-05 4.840945247777801e-05 -3.437526288910739e-25)
(-0.000111421583862307 2.668437809890544e-05 -1.561595734212357e-25)
(-9.981994048457516e-05 4.258839971315259e-05 1.207886881290069e-25)
(-0.000130617059491897 1.988274208117703e-05 -5.085973237183735e-25)
(-0.0001226102821303464 3.533740778933023e-05 -5.823633581579069e-26)
(-0.000146640650363391 1.441734965279116e-05 -2.940375385361758e-25)
(-0.000144987368150754 2.765377419527225e-05 2.602986805391207e-25)
(-0.0001590377692979373 1.005484017308606e-05 1.320356752471962e-25)
(-0.0001603000883928918 1.998110361164099e-05 -3.021750860693072e-26)
(-0.0001677828321393177 6.539756452855901e-06 -3.517393545831211e-25)
(-0.0001707075479540299 1.318898002390845e-05 3.349552478042883e-26)
(-0.0001706516505775907 4.07108351316472e-06 -4.249776154504388e-25)
(-0.000176480356525202 4.204187123440992e-06 -7.198977823763493e-26)
(-0.0001717423746753717 3.138593203731556e-06 1.878708234639664e-25)
(-0.0001776292005156538 1.637760797144003e-06 1.013423290028156e-25)
(-0.000170926937058046 3.880613334453523e-06 3.386004870228115e-25)
(-0.0001765327363169459 1.575762819781665e-06 2.36766032716154e-25)
(-0.0001690697730821925 5.841724526499047e-06 1.51377004037284e-25)
(-0.0001739389453592198 3.156033193718092e-06 8.34662506622596e-26)
(-0.0001675445489575616 7.897239322527439e-06 3.683065361462209e-25)
(-0.0001708427927417186 5.526502134988352e-06 1.060662643999957e-25)
(-0.0001678895959885173 8.871138775395335e-06 2.438980024981743e-25)
(-0.000168718170408474 8.029506144466275e-06 2.294541162214962e-25)
(-0.0001705636457001726 8.290529929832382e-06 1.360103043636389e-26)
(-0.0001685886687212112 9.220481162712814e-06 -4.549297884436442e-26)
(-0.0001755068906068979 6.407608668015688e-06 -2.021008669559049e-26)
(-0.0001709525403417841 9.121482337797318e-06 1.486122334142528e-25)
(-0.0001814759568287548 3.619883189741485e-06 2.964386732411048e-26)
(-0.0001756561653715565 7.681422104818393e-06 5.43668818108155e-26)
(-0.0001869069348349535 2.676441900386323e-07 -1.038462847775828e-27)
(-0.000181440770307488 5.112088551359123e-06 1.308992853900101e-26)
(-0.0001901143324942138 -3.344688530492119e-06 -1.087326844443766e-25)
(-0.000187253590353516 1.489470538189987e-06 -8.02617862466075e-26)
(-0.0001899992307536484 -7.251373397384659e-06 -5.891362226766471e-26)
(-0.0001907785979363662 -2.931785547555982e-06 -1.776971402593703e-26)
(-0.0001854252514131213 -1.105285215017845e-05 -8.732024767983988e-26)
(-0.000191032873651255 -9.489339522170278e-06 -1.808630544527701e-25)
(-0.0001765522743285855 -1.426589798272928e-05 -8.95562920996806e-26)
(-0.0001872865265174216 -1.600992886844083e-05 -2.917115852193312e-25)
(-0.0001636669896719457 -1.699241323879701e-05 5.186813777612399e-26)
(-0.0001788643988389176 -2.225066380580185e-05 4.346864037362559e-26)
(-0.0001477527730832709 -1.917950446930553e-05 3.666816229954539e-26)
(-0.0001657498594502549 -2.749786049906422e-05 -8.370553580967546e-26)
(-0.0001301489659240367 -2.093287559623711e-05 -6.936877707279436e-26)
(-0.0001490097869674164 -3.111612835462877e-05 -1.052701815614089e-25)
(-0.0001117517212862715 -2.243396664632978e-05 -6.068024011924854e-26)
(-0.0001294186392277065 -3.343967824399348e-05 9.937585718759388e-26)
(-9.341235967372821e-05 -2.375377617522946e-05 2.520519213408893e-27)
(-0.0001082784001720621 -3.456659760744159e-05 -5.127439392437603e-26)
(-7.668025271556393e-05 -2.510253076849744e-05 4.703997300523053e-26)
(-8.587813424914383e-05 -3.364535280804162e-05 5.113172348183185e-26)
(-6.017699541775612e-05 -2.675250401418875e-05 2.7514258235358e-27)
(-6.48015314307009e-05 -3.423994098173422e-05 4.243487247219457e-26)
(-4.350876324620992e-05 -2.857370583557536e-05 -8.956413149218175e-26)
(-4.330826922218753e-05 -3.529639180105102e-05 1.183072970415461e-25)
(-2.661929566975207e-05 -3.043339095814188e-05 -7.515584434620997e-26)
(-2.413166441026116e-05 -3.635797353069129e-05 -1.308166696293042e-26)
(-9.119464678739216e-06 -3.231361332186714e-05 -3.110904499904715e-26)
(-5.916442992649049e-06 -3.779842781507107e-05 -2.460166110748477e-26)
(9.547236526027983e-06 -3.376640051360613e-05 -2.246973810030003e-26)
(1.164176053064009e-05 -3.989331100949051e-05 -7.809869613394939e-26)
(2.929093688529315e-05 -3.446669133088006e-05 1.5934807836477e-26)
(2.854348692043569e-05 -4.173437750707176e-05 -5.224073938073611e-26)
(5.040799826880625e-05 -3.467947268764532e-05 2.120760320933174e-26)
(4.649043572706665e-05 -4.363291361178562e-05 5.906508274213663e-27)
(7.320014051285937e-05 -3.454996515099864e-05 5.133565795259834e-27)
(6.449742910554902e-05 -4.585467342651656e-05 8.696741402874413e-27)
(8.607605064530104e-05 -4.700743170137982e-05 -9.948926744380358e-27)
(9.688822583357567e-05 -3.397557362580593e-05 5.253756940680915e-24)
(-2.68208504434942e-06 1.159353221950828e-05 1.876067045575495e-25)
(-1.158879861545463e-06 4.800688462153345e-06 7.351871806231178e-26)
(-7.02880988049962e-06 2.766504881521159e-05 -2.182921742521636e-25)
(-3.895353019281834e-06 2.234184023674724e-05 -3.689102497293081e-25)
(-1.791847437795791e-05 4.261365627985822e-05 -4.44597012348299e-25)
(-1.029154671174511e-05 4.182985242916726e-05 3.188087602713878e-25)
(-3.61625294048341e-05 5.257349639622685e-05 1.440353407886975e-25)
(-2.532041505645858e-05 5.738787767833374e-05 -7.748714430490723e-26)
(-6.082780539804488e-05 5.736493640562254e-05 4.218304169275616e-25)
(-4.638464764361941e-05 6.71411145695448e-05 1.190804440328597e-25)
(-8.486718086006184e-05 5.685166129880696e-05 1.938985192186086e-25)
(-7.186378768352999e-05 7.243754636526814e-05 6.961146671485893e-25)
(-0.0001113473449099565 5.156770000443815e-05 1.915535389809565e-25)
(-9.840136749754556e-05 6.905819810159784e-05 3.613333212558451e-26)
(-0.0001368917936219652 4.333741890270843e-05 5.97907444236846e-25)
(-0.0001252154257305118 6.087235973052575e-05 1.343339804986232e-25)
(-0.0001582080911499742 3.294942435223407e-05 4.856592692965968e-25)
(-0.000150626286563788 4.896141387278303e-05 4.166562871049748e-25)
(-0.0001722635740175557 2.254673275663223e-05 -9.235330501915247e-26)
(-0.0001703674139047849 3.402858925395141e-05 -1.322437821376249e-25)
(-0.0001802833992453272 1.044731025633252e-05 2.439003076270258e-25)
(-0.0001819880480996667 2.120143336198249e-05 1.328099574562796e-25)
(-0.0001833237031151148 1.833107888885233e-06 3.925735661383669e-25)
(-0.0001893283156237633 7.237641401954772e-06 -5.225762652835116e-26)
(-0.0001827049667683466 5.087054131456826e-07 1.276245247933219e-25)
(-0.0001905798456873984 1.012664908159251e-06 -1.475332501779616e-25)
(-0.0001798650895956986 1.073606004050508e-06 -2.136206132582135e-26)
(-0.0001878719670895974 -1.270000338484677e-06 -4.713983736887848e-26)
(-0.000175734904036617 2.867116787266099e-06 -1.034444936735946e-26)
(-0.0001819517362672005 -9.795896477590105e-07 7.558917848132693e-26)
(-0.000171758304062797 5.90429937459446e-06 -1.167996932994311e-25)
(-0.0001754785773842262 1.544954165468565e-06 1.146372900940418e-25)
(-0.000169642010837013 9.031364226436726e-06 -1.281203369490245e-25)
(-0.0001701234023613302 5.908783676476264e-06 -1.759958090554872e-25)
(-0.0001689426398849455 1.067298482352217e-05 6.286760617441536e-26)
(-0.000166230813610187 8.517246289295551e-06 -2.0723386550218e-25)
(-0.0001713681401666219 1.05371743210909e-05 1.955030885694673e-25)
(-0.0001666534082824209 1.15437733920731e-05 9.74756388615506e-26)
(-0.0001759941053608078 8.892036935296407e-06 -7.953847253384216e-27)
(-0.000170668195583237 1.230498915613181e-05 -2.609576555239699e-25)
(-0.0001819143159819391 5.923072342872241e-06 -6.640904047613418e-26)
(-0.000177141889904496 1.103074781727077e-05 -1.207229173904834e-25)
(-0.0001878606831141074 1.744001758642581e-06 3.121089389017404e-26)
(-0.0001844613109700102 7.435406675403083e-06 1.58970202689931e-25)
(-0.000192060561496385 -5.004031931631944e-06 -1.361637929028422e-25)
(-0.0001911527979636572 1.268809309980305e-06 5.010821712922632e-27)
(-0.0001932188724056721 -1.405114699184294e-05 -3.73577570727665e-25)
(-0.0001956468666645287 -8.328773670740507e-06 4.792451060665792e-26)
(-0.0001899454119557981 -2.343808420400167e-05 -1.487186327171162e-25)
(-0.0001966439610676024 -1.927952679260189e-05 -1.364325887217219e-26)
(-0.0001813490733565998 -3.218289961489768e-05 -1.00538836877617e-25)
(-0.0001926789828544436 -3.084100315182556e-05 -8.764706148761547e-26)
(-0.000167410340617967 -3.910064156665125e-05 -2.334541036928984e-25)
(-0.0001830941780670791 -4.142829777125181e-05 -2.38424368871071e-26)
(-0.0001487823588730803 -4.382456022855394e-05 6.39397992206511e-26)
(-0.0001679263017393057 -4.973277995450973e-05 1.034223818984368e-25)
(-0.0001264196011694286 -4.651933365380637e-05 1.101426022789892e-25)
(-0.0001478297628819075 -5.578781755438117e-05 7.853453315570081e-26)
(-0.0001008745441941414 -4.569653756901372e-05 -2.324600553252163e-27)
(-0.0001236668587328636 -6.009283424691166e-05 1.270030777374461e-25)
(-7.425106937341636e-05 -4.370890104853607e-05 4.730720070732317e-26)
(-9.518327161931807e-05 -6.024542642344807e-05 -1.066930159153982e-25)
(-4.818210075337521e-05 -4.327535947204085e-05 1.549780989919491e-25)
(-6.602015560288253e-05 -6.02798459224318e-05 2.240771418938e-26)
(-2.39465300766138e-05 -4.317509129290519e-05 1.884879046791368e-25)
(-3.637092650637834e-05 -5.949699425927879e-05 1.474044565944903e-25)
(-3.389048768357647e-06 -4.3353456747572e-05 3.235661106020745e-26)
(-1.003913952850346e-05 -5.687330877278545e-05 4.969166176535388e-26)
(1.437069660756214e-05 -4.434425700382764e-05 -7.700656425692379e-26)
(1.35818729127899e-05 -5.550892096203702e-05 2.268190638631965e-26)
(3.08782101625263e-05 -4.668398217701062e-05 -1.092506299007483e-25)
(3.339420469224083e-05 -5.634602222476828e-05 -1.126788927172168e-27)
(4.559184696949975e-05 -5.010856157590747e-05 -5.991348740267566e-26)
(5.003984569901674e-05 -5.639114415625366e-05 -4.605033978317227e-26)
(6.041612520110855e-05 -5.445382330655993e-05 -5.717867805225505e-27)
(6.504408511392178e-05 -5.839194776015979e-05 -7.999867708788497e-26)
(7.730987122157431e-05 -5.842416293024938e-05 -5.642028986403562e-27)
(7.832532601641819e-05 -6.268940243984884e-05 1.688428450149482e-26)
(9.521124220334346e-05 -6.648985640858812e-05 -1.658162003760967e-27)
(9.688024837636163e-05 -6.103003818817997e-05 -1.634140833417053e-22)
(-1.767485530178686e-06 1.521208435358133e-05 -4.175633007367406e-25)
(-8.912252474811078e-07 6.554108113201474e-06 -6.706262542744602e-25)
(-7.005532134888768e-06 3.602803974368213e-05 6.718286487910378e-26)
(-3.896061967273657e-06 2.756622844774045e-05 5.849344373371016e-25)
(-1.796192650545012e-05 5.635104215288772e-05 4.715720579301118e-25)
(-1.08541064433994e-05 5.277284873851013e-05 7.836306620077497e-25)
(-3.538006341961666e-05 7.170939295733169e-05 -1.074831004281264e-25)
(-2.563624091424176e-05 7.479303528334526e-05 -5.770102100876066e-26)
(-5.848796796256257e-05 8.132362595036274e-05 4.151234682630073e-25)
(-4.716919723535452e-05 9.023663264225862e-05 6.582457556133165e-26)
(-8.4396776050662e-05 8.38779467033154e-05 5.080841889426166e-25)
(-7.244732805551826e-05 9.833462056353392e-05 3.373265651094055e-25)
(-0.0001125870288136177 7.839341511601439e-05 -1.493573615341394e-26)
(-0.0001003275411638441 9.72374760825653e-05 -2.346657811556357e-25)
(-0.0001391504846683732 6.695794318218478e-05 -4.70210433123687e-26)
(-0.0001290171143992854 8.742554914103664e-05 -5.528527533719069e-26)
(-0.0001623443905112144 5.115446949172784e-05 -2.037678493405559e-25)
(-0.0001532054035720514 7.214576170894785e-05 -5.888719692705585e-25)
(-0.0001804404968833255 3.379092748209762e-05 9.415810191947521e-26)
(-0.0001753489471003209 5.211575583462792e-05 2.475732450636928e-25)
(-0.0001910996666543438 1.817493459412936e-05 -1.632456603458889e-25)
(-0.0001888866345209668 3.185217469750867e-05 1.498514168838576e-26)
(-0.0001971322848363272 5.881567305288312e-06 -6.018174163587935e-25)
(-0.0001978954294925726 1.326235146955599e-05 -1.06757892563923e-25)
(-0.0001960048515226863 -1.301203826756465e-06 -3.427440082739338e-25)
(-0.0002000969737137596 -1.223158341513831e-07 8.530807913964513e-26)
(-0.0001899295958235507 -3.613420579980146e-06 3.318379805888311e-26)
(-0.0001966610927957316 -7.352431707719703e-06 -2.97863183057261e-25)
(-0.0001817999461709893 -2.456548196708188e-06 2.041611149933629e-25)
(-0.0001886573399426133 -9.115996829161939e-06 -7.73520018271528e-26)
(-0.0001737063688266846 1.341490224152854e-06 7.029384722956321e-26)
(-0.0001795740872143849 -6.554960754057367e-06 1.10561360293246e-25)
(-0.000167164716992706 5.155366205592201e-06 -2.480718283146536e-25)
(-0.0001715790396638663 -6.387397394004083e-07 -3.891990040202044e-26)
(-0.0001639390921260343 9.478253664179422e-06 -1.529683367883264e-25)
(-0.0001654144046699727 5.286273666240788e-06 -6.731737463499957e-25)
(-0.0001660048093206743 1.377128031058176e-05 -3.190390528271842e-25)
(-0.0001648433386169744 1.360478062490732e-05 -5.623057936315142e-25)
(-0.0001719198872468253 1.489744687192805e-05 -3.575500627759342e-25)
(-0.0001689950105905537 1.821588973329728e-05 -9.666142502443966e-26)
(-0.0001797365111220871 1.275715930744833e-05 9.619898513683187e-26)
(-0.0001760843894623266 1.88437162680976e-05 -6.46280700805441e-26)
(-0.0001881248162113226 7.108205034032698e-06 1.290918286581825e-25)
(-0.0001860236868711276 1.582048367999864e-05 6.498660757767337e-26)
(-0.0001948103779243427 -1.887485037517462e-06 1.784618589692003e-25)
(-0.0001956811194702953 7.951598873247541e-06 -3.387625094425742e-25)
(-0.0001993260983029262 -1.349808365801157e-05 3.856637483026365e-25)
(-0.0002035490807186019 -3.815383505748801e-06 2.277945734568305e-25)
(-0.000199845260778237 -2.668113911861584e-05 3.832578546298161e-26)
(-0.0002085747950796754 -1.876214035615154e-05 4.558968461338245e-25)
(-0.0001945427041137722 -4.003412203621493e-05 -6.519162888542238e-27)
(-0.0002064469264500343 -3.614484246652764e-05 -1.5803046704223e-25)
(-0.0001838249297513272 -5.166509114914317e-05 3.229477228368602e-25)
(-0.0002012251613454228 -5.214654555527537e-05 9.409606044244439e-26)
(-0.0001675020760791137 -6.094697454677558e-05 1.120988260029879e-25)
(-0.0001837268722404789 -6.60552212219021e-05 7.702602801386053e-26)
(-0.0001456477472572718 -6.822726028712186e-05 8.824137076709962e-26)
(-0.0001616341011428953 -7.764042509662357e-05 -4.940871034742887e-26)
(-0.0001181550610626873 -7.316430590022254e-05 2.27746197631062e-26)
(-0.0001344449280440711 -8.758234778186772e-05 5.247238682957171e-27)
(-8.703741820670394e-05 -7.559582391176585e-05 -1.37525965865341e-25)
(-0.0001033324993868816 -9.135769003834352e-05 -1.12092481176196e-25)
(-5.448177995352692e-05 -7.589235401302035e-05 2.626082467891787e-27)
(-7.034731928171589e-05 -9.282752066927564e-05 2.690105434833035e-27)
(-2.237392956303446e-05 -7.309221521122216e-05 -3.822672164720292e-27)
(-3.745620626144391e-05 -9.159349360022476e-05 -2.217767798018123e-25)
(7.019830265686065e-06 -6.931678397626382e-05 4.105594496638696e-26)
(-6.870800013011542e-06 -8.625175708508229e-05 1.163126276389761e-25)
(3.210935059798164e-05 -6.81805890224915e-05 1.098011919324783e-25)
(2.065989475519393e-05 -8.057838196439284e-05 -2.766480537029099e-26)
(5.283735759618057e-05 -6.671381397562213e-05 7.34762040243144e-26)
(4.357505257177656e-05 -7.70504494717694e-05 1.305464860172157e-25)
(6.923166179244143e-05 -6.496913344017703e-05 -6.197090912868803e-26)
(6.2225011033522e-05 -7.276332463809342e-05 3.61628152719445e-26)
(8.282117760170415e-05 -6.642900274276287e-05 -5.7689037213386e-26)
(7.819098740150608e-05 -7.195729586699439e-05 4.826944013901123e-26)
(9.621218475741165e-05 -7.023819173318625e-05 2.136568365177818e-26)
(9.202885286645039e-05 -7.604316256808041e-05 -2.85231840743813e-26)
(0.0001078674698218502 -8.019328077564958e-05 -8.255222635791243e-27)
(0.0001099626083071913 -7.33161344688713e-05 -1.075181722226369e-25)
(-1.844072741443948e-06 1.917026483750723e-05 3.614791726300856e-25)
(-8.686643570350095e-07 8.386355609798941e-06 1.569010278982944e-25)
(-7.628900903338703e-06 4.468971574096781e-05 1.34439824693067e-24)
(-4.064167629969545e-06 3.333819342413429e-05 -7.821015521870413e-26)
(-1.926095744923074e-05 7.13644324482693e-05 3.002565101000447e-25)
(-1.179931452221643e-05 6.439199387305889e-05 1.11684407902781e-25)
(-3.739493166850854e-05 9.328424872085177e-05 1.21088260556261e-25)
(-2.69881637199299e-05 9.291443293431063e-05 2.909356309034197e-25)
(-6.127104375925826e-05 0.0001074140414340837 -6.104907023605003e-26)
(-4.905632574814441e-05 0.000114100707486253 -1.567683310819646e-25)
(-8.838368218055647e-05 0.0001119862709382352 -4.36425481811143e-25)
(-7.530465814882035e-05 0.0001254358405222224 -7.519530544980738e-25)
(-0.0001165840485711736 0.0001063904395575346 -2.750937593447102e-25)
(-0.000103891509800945 0.0001254270943670788 -3.225729724874169e-25)
(-0.0001433412166768824 9.243678336341474e-05 -6.025229634239667e-25)
(-0.0001325210838710658 0.0001141726497337806 4.709431730152248e-26)
(-0.0001660648827341152 7.258391681277128e-05 -1.417340736286017e-25)
(-0.0001574161341229301 9.485998241972267e-05 -1.981640568678118e-25)
(-0.0001839232465001466 4.96725083917278e-05 1.618152137610316e-25)
(-0.0001784035502394074 6.996527416304132e-05 -4.445281135383376e-25)
(-0.0001955718602260468 2.711712238680768e-05 7.365212560464719e-26)
(-0.0001926840340203138 4.349244157169717e-05 -4.004973141856623e-26)
(-0.0002013852609338662 7.832081845084701e-06 5.800051659840724e-25)
(-0.0002010874975028536 1.906787936064195e-05 3.28837319475621e-26)
(-0.0002010428768516832 -5.879470875235068e-06 1.296318722135943e-25)
(-0.0002031486646036866 -4.721897835431135e-07 3.60333193307099e-25)
(-0.000195355014926828 -1.27340852688005e-05 -4.051747374708112e-25)
(-0.0001998532062936926 -1.304743152655984e-05 -1.941820908404262e-25)
(-0.0001866146917921863 -1.307022134800883e-05 -1.764397217494705e-25)
(-0.0001925143895737763 -1.786310553573618e-05 4.965797671837991e-26)
(-0.0001774381396766599 -8.332986984949335e-06 -2.544752736029649e-27)
(-0.0001836380457620709 -1.573788452377875e-05 -4.16356929604304e-25)
(-0.0001699350646861969 -5.473024974939863e-07 -4.575679594192968e-25)
(-0.0001756393706804101 -8.147758508389567e-06 2.009694026127917e-25)
(-0.0001667809365093386 9.165352525006519e-06 -1.081701482129592e-24)
(-0.0001705147907337387 2.126702753057035e-06 8.081055360587123e-26)
(-0.00016770083961082 1.790953744463292e-05 -3.356323169276882e-25)
(-0.0001697101174813144 1.451968378853002e-05 -3.118992599566241e-25)
(-0.0001731944363537818 2.228021901330839e-05 2.080320602287428e-25)
(-0.0001735292657430486 2.370495147400883e-05 2.929372463783125e-25)
(-0.0001824668019858875 2.238010483616097e-05 -9.87997617302155e-26)
(-0.0001808795547747778 2.811190823730865e-05 3.062355264130616e-25)
(-0.0001939226527640772 1.709621714134381e-05 -4.099530289020525e-25)
(-0.0001925684254778584 2.727243929566158e-05 -3.853477560896533e-25)
(-0.0002045944186881082 6.319137943029601e-06 -2.920928439989972e-25)
(-0.0002041873064994431 1.861952406149374e-05 1.888484802058369e-26)
(-0.0002129492951270167 -8.763565334695385e-06 2.996540722909595e-25)
(-0.0002148218236959505 4.535639051571937e-06 1.698554605409914e-25)
(-0.0002159219378160717 -2.788802812135206e-05 2.670205378513505e-25)
(-0.0002214597817269809 -1.579360788410915e-05 2.632483973828788e-25)
(-0.0002129439971704699 -4.832455733762e-05 -5.48417731704713e-26)
(-0.0002209227132420532 -3.912714471364688e-05 -2.010256839212367e-25)
(-0.0002007909921088275 -6.765852429340734e-05 -1.552394554992365e-25)
(-0.0002158030495904122 -6.430443076732483e-05 -3.0960010699992e-27)
(-0.0001790743377100784 -8.386223886447993e-05 -8.840772605723052e-26)
(-0.000198061014289107 -8.77771926657122e-05 -2.580851404417416e-25)
(-0.0001510968557253138 -9.722997742466895e-05 -1.34593931064485e-25)
(-0.0001736670370797106 -0.0001056234656695249 -4.427472566124909e-25)
(-0.0001195453920437865 -0.0001055716529284684 -1.302121403419478e-25)
(-0.0001435587420647333 -0.0001191392021906725 -2.403865861845378e-25)
(-8.685828194690372e-05 -0.0001082090207788752 2.866037914916522e-26)
(-0.000109424447589872 -0.0001240497184046451 4.965723195826051e-26)
(-5.362471507144142e-05 -0.0001080548767558526 -2.216688963054002e-25)
(-6.992369058775341e-05 -0.0001260651174934725 -2.741097733075031e-26)
(-2.185718542334286e-05 -0.0001040353484564322 -1.013146079104713e-25)
(-3.809743723793456e-05 -0.0001233639465153896 -1.460524155581633e-25)
(6.988829704146532e-06 -9.689776757954271e-05 4.78322269034665e-26)
(-5.133610818281204e-06 -0.0001150988032367423 -1.372290758523526e-25)
(3.217505816594646e-05 -8.944453316498856e-05 -7.070921900051137e-27)
(2.398670382288024e-05 -0.0001057635985286007 3.805504372107538e-26)
(5.264625241320549e-05 -8.336488176639494e-05 9.264280898977829e-26)
(4.770384641776152e-05 -9.752010719364876e-05 1.445075934905032e-26)
(7.083169371856859e-05 -8.006586077660367e-05 1.460702313306753e-25)
(6.963305172807856e-05 -9.094988180077279e-05 4.770631664201507e-26)
(8.752118499766391e-05 -8.215950528293993e-05 7.73857152004664e-26)
(8.612465364714088e-05 -8.864387351488718e-05 -5.680880727132788e-27)
(0.0001033137461516107 -8.62972815268114e-05 -5.812761845333719e-26)
(0.0001008015607143521 -9.184799295376839e-05 9.543203561611285e-28)
(0.0001141228094709983 -9.501354452235858e-05 -2.774956386332182e-26)
(0.0001181624263633851 -9.021096791568573e-05 2.728878805292008e-22)
(-1.919572922568116e-06 2.281493976234163e-05 -2.394467767948098e-25)
(-8.535766012918896e-07 1.029199200451146e-05 6.319822348600896e-25)
(-8.073724234710373e-06 5.315909406798789e-05 -1.250348675488659e-24)
(-4.159222140256038e-06 3.947921304195797e-05 -6.620949421130285e-25)
(-2.022476824287702e-05 8.594492012150547e-05 9.823772485249462e-26)
(-1.244729353979142e-05 7.65303348403523e-05 -9.047029143158232e-25)
(-3.880353007511268e-05 0.0001137934438722452 1.884478838291907e-26)
(-2.815466140905393e-05 0.0001114809446041244 -8.556666321542085e-25)
(-6.313199391991118e-05 0.0001322739458873587 -8.103485491618114e-25)
(-5.060145842040398e-05 0.0001384174844353703 -3.598809057347391e-25)
(-9.095557471905163e-05 0.0001389737407382858 -6.491589109763447e-25)
(-7.765076683105322e-05 0.000153248368116086 2.933391419664322e-25)
(-0.0001196004625205767 0.0001332817428287759 -1.972071491090128e-26)
(-0.0001070466914964188 0.000154061588357954 1.756717481329589e-25)
(-0.0001467166506364407 0.0001167466637218268 4.185461029648589e-25)
(-0.0001360306611209655 0.0001412791077800622 9.956883271252082e-25)
(-0.0001696984022978002 9.244669497082496e-05 -5.069935459395366e-25)
(-0.0001616534504330145 0.0001178326139609607 3.845828842398612e-25)