/*--------------------------------*- C++ -*----------------------------------*\
| =========                 |                                                 |
| \\      /  F ield         | OpenFOAM: The Open Source CFD Toolbox           |
|  \\    /   O peration     | Version:  2206                                  |
|   \\  /    A nd           | Website:  www.openfoam.com                      |
|    \\/     M anipulation  |                                                 |
\*---------------------------------------------------------------------------*/
FoamFile
{
    version     2.0;
    format      ascii;
    arch        "LSB;label=32;scalar=64";
    class       volVectorField;
    location    "3";
    object      ddtCorrDdt0(U);
}
// * * * * * * * * * * * * * * * * * * * * * * * * * * * * * * * * * * * * * //

dimensions      [0 1 -2 0 0 0 0];

internalField   nonuniform List<vector> 
18114
(
(-7.93132781085485e-07 3.980364801109938e-06 3.120911570224169e-25)
(-5.559961250776323e-06 1.535748285416018e-06 -1.808840695420383e-25)
(-1.692229398138808e-05 4.575185848300339e-06 1.120411893454702e-25)
(-3.363131246232361e-05 7.914970751263012e-06 1.335245973093409e-25)
(-5.435552765728334e-05 1.079036835016021e-05 -4.060921673314583e-25)
(-7.868118036214665e-05 1.121163118496825e-05 1.184173051130686e-25)
(-0.0001027307475859441 1.042381194414008e-05 5.445825800179955e-27)
(-0.0001221590858414835 8.584467665541473e-06 3.341922876038404e-27)
(-0.0001358231679708311 5.879385559539857e-06 6.225557885738943e-26)
(-0.000144813347205296 3.10373426519479e-06 1.773483307559987e-25)
(-0.0001505497911140768 8.523885743827698e-07 -1.327204079110548e-25)
(-0.0001527607019018899 -1.876245069941016e-06 3.011309837133496e-25)
(-0.0001543720882152912 -2.230665776338745e-06 -3.420221707970548e-26)
(-0.0001536549783180922 1.600068769412255e-06 -9.804456795097381e-26)
(-0.0001584292602477477 5.333442753888081e-06 3.72710677700487e-26)
(-0.0001649569906394902 7.015487434210991e-06 5.90400109579403e-26)
(-0.0001725840013934227 6.177415909746164e-06 -2.41780585884539e-25)
(-0.000179981406195022 3.522829475407472e-06 1.189698019748801e-25)
(-0.0001852908988630797 3.938849004183032e-07 -1.334553678165402e-26)
(-0.0001881607434448693 -1.573901414350485e-06 1.864368504490577e-25)
(-0.0001886501641210838 -2.036243220519164e-06 -2.058500715835137e-26)
(-0.0001876193102807735 -1.422270790858225e-06 1.580904657926215e-26)
(-0.0001854726739626302 -7.318730152672071e-07 8.613140321952732e-26)
(-0.0001815353552168896 -1.219351906198321e-06 1.143331521281364e-26)
(-0.0001755187616858759 -2.55734178551358e-06 7.254753929354283e-26)
(-0.0001672549965876804 -4.129304004838546e-06 3.151538024608341e-26)
(-0.0001566066038976304 -5.577762469458667e-06 -3.420996938359897e-26)
(-0.000143976244855846 -7.121854057551632e-06 6.277689204215733e-26)
(-0.0001296264003249998 -8.35692980975949e-06 5.103067392549895e-26)
(-0.000113939759904422 -9.18537638964625e-06 1.605486319265084e-26)
(-9.73913799771956e-05 -9.550985762627479e-06 -1.804580197365659e-26)
(-8.002316704484221e-05 -9.85797961097535e-06 -4.078872466140927e-26)
(-6.181944860356856e-05 -9.980230868948146e-06 -2.25694841626299e-26)
(-4.271744063872102e-05 -1.001950138808798e-05 7.865636333652488e-26)
(-2.276360785273544e-05 -1.005045601856147e-05 -1.523931995482978e-26)
(-1.879304901310072e-06 -1.036741438179993e-05 -9.358173309171475e-27)
(1.980412682750413e-05 -1.090484077296591e-05 3.075783381813732e-26)
(4.220613582600776e-05 -1.164446772607866e-05 -2.900873700188872e-26)
(6.500966930059289e-05 -1.247942930628634e-05 -1.455801560578534e-27)
(8.840586237903754e-05 -1.308591621684344e-05 -2.732283252673426e-28)
(-2.159043195083064e-06 4.88345867184503e-07 -7.292070814560782e-25)
(3.231380659972048e-06 1.692887677126241e-05 6.626601057499197e-25)
(-1.862276574755976e-05 2.419680982332673e-05 -8.349880454587925e-25)
(-3.616265081571881e-05 2.952631854306966e-05 -9.468924786180058e-26)
(-5.524250820947624e-05 3.028822715955803e-05 2.255735333646997e-25)
(-7.810453882551622e-05 3.983441918099278e-05 -6.624410526649437e-25)
(-0.000101062422948985 3.04611980419345e-05 -2.647661105899276e-25)
(-0.0001218003879567009 2.290755628433634e-05 -4.755293607384065e-26)
(-0.0001396772506078548 1.68579256588456e-05 -9.696421309340327e-25)
(-0.0001537771814464301 1.197677149736363e-05 3.815676604824697e-25)
(-0.0001642043216596852 8.132906951020957e-06 -1.174965309949038e-25)
(-0.0001701162956910616 4.946604263062684e-06 -5.859823827745164e-25)
(-0.0001717890215587908 3.195561720154537e-06 -2.639727094754174e-25)
(-0.0001712965016525859 3.081624278258107e-06 6.397147394519341e-25)
(-0.0001699550631612876 4.67960252069217e-06 3.748598324852211e-26)
(-0.0001682027316407145 7.003846850388821e-06 2.652681183160733e-25)
(-0.000167280763585798 8.790631833557224e-06 4.713450371082817e-25)
(-0.0001685535740131654 8.951645013395108e-06 1.645078783899475e-26)
(-0.0001723997903876113 7.629413346574732e-06 1.075127083361044e-26)
(-0.0001782259302335225 5.185801567075555e-06 -5.117146772001233e-26)
(-0.0001842098855727612 2.053961375100375e-06 1.10459262299592e-25)
(-0.0001894839789875873 -1.518677617523573e-06 -1.125362686120526e-25)
(-0.0001910403107197257 -5.170705350539593e-06 -1.049290976081222e-25)
(-0.0001885885047314684 -9.332048994142329e-06 -1.28981155152544e-26)
(-0.0001819191129979259 -1.277366430872069e-05 -1.617424289511954e-25)
(-0.0001708646694000128 -1.575814207233852e-05 -1.737010935974971e-26)
(-0.0001559766916153198 -1.822669619442416e-05 1.21106427147652e-25)
(-0.0001389957889347063 -2.013232562848832e-05 -4.777015180859822e-26)
(-0.0001207719878719404 -2.173343953074752e-05 -9.096741429667816e-26)
(-0.0001021466408040375 -2.313450834359464e-05 -3.039305006613596e-26)
(-8.466851845422346e-05 -2.437305910713481e-05 3.543410477356352e-26)
(-6.8360752596561e-05 -2.583201739935084e-05 5.864584659138556e-26)
(-5.181381408906192e-05 -2.767300553593934e-05 -5.314301878009384e-26)
(-3.507336727863913e-05 -2.947442013049557e-05 -1.259852585429337e-25)
(-1.823798057989499e-05 -3.139237533356882e-05 -2.432641207020462e-26)
(2.298837132462069e-07 -3.323486351244653e-05 -3.789168015003307e-26)
(1.889729815955245e-05 -3.429794866326712e-05 -7.047791780540828e-27)
(3.972755116731001e-05 -3.463544361701276e-05 3.891741296083736e-26)
(6.131095447936034e-05 -3.472350931708217e-05 3.497790006476328e-27)
(8.510610659081408e-05 -3.437642450605601e-05 6.769341758285477e-27)
(-1.405645233792778e-06 3.974940493698387e-06 5.527958973015287e-25)
(-3.981313299609449e-06 1.921217465264925e-05 -1.775828475407767e-25)
(-1.02871891671392e-05 3.611795857139876e-05 -2.590015407695147e-25)
(-2.576004457644439e-05 4.910938024076431e-05 -6.301926613239093e-25)
(-4.677140857582004e-05 5.603762990120521e-05 9.182640740046504e-25)
(-7.298098632805033e-05 5.869225575993763e-05 -7.460370279117165e-26)
(-9.857750645754952e-05 5.501107266822152e-05 4.624009881336857e-25)
(-0.0001234202691997429 4.812432971408202e-05 -7.929415573270989e-26)
(-0.0001502976402454616 3.855050774217399e-05 1.275109649727152e-24)
(-0.0001668232263004502 2.734833866185875e-05 -3.03791807114297e-25)
(-0.0001772111005975569 1.774512442578876e-05 1.190853808421642e-25)
(-0.0001828448630629845 3.1494908167717e-06 3.687153412544265e-25)
(-0.0001834699656817344 5.167244025515175e-07 4.164318111432573e-25)
(-0.0001817697200838862 5.006863463191189e-07 -1.611830013140641e-25)
(-0.000177923753959532 1.646525948154151e-06 1.184589928743595e-25)
(-0.0001734839808490375 4.087708384927877e-06 -1.391479950069629e-25)
(-0.0001701569347134121 7.720891614769982e-06 -9.44513739991693e-26)
(-0.0001686253698615548 1.034183765310045e-05 -1.617893259047946e-25)
(-0.0001695071716152719 1.100413194157138e-05 2.875247083402881e-25)
(-0.0001730885797111516 1.007021577507293e-05 1.034814006824366e-25)
(-0.0001786741610095874 7.713856110617309e-06 -1.193891757502462e-25)
(-0.0001850260586484833 4.132285426900211e-06 -1.342886788587908e-26)
(-0.0001905201199367227 -6.442865025261314e-07 7.585068621042954e-26)
(-0.0001934808723803027 -9.36378446762065e-06 -3.481784127413253e-25)
(-0.0001926579940611451 -1.873851800293696e-05 -3.989767449867007e-25)
(-0.0001868686209065324 -2.813766027506059e-05 1.015396342400333e-25)
(-0.0001755279749069102 -3.622814987528686e-05 -3.026174278512004e-25)
(-0.0001590292075043649 -4.197314497770595e-05 -1.642907403604463e-25)
(-0.0001380712081493168 -4.567598795838188e-05 2.921704618983638e-25)
(-0.0001144165852821144 -4.736269253456346e-05 -7.188535019496054e-26)
(-8.70946998564377e-05 -4.403039598314548e-05 6.723618248304477e-26)
(-6.124978611508878e-05 -4.338742082167233e-05 2.737821000102063e-26)
(-3.481074093135818e-05 -4.316331346037028e-05 2.82578040842981e-25)
(-1.319850201190708e-05 -4.318688440515624e-05 9.439773274103773e-26)
(6.396043670209052e-06 -4.352004456110647e-05 -2.968453193747901e-26)
(2.304412113714746e-05 -4.516848444186053e-05 -1.243286109391737e-25)
(3.817972493141068e-05 -4.819949509037748e-05 -9.41726449633972e-26)
(5.32429935220103e-05 -5.201764169138622e-05 -2.565432186826706e-26)
(6.767328040807931e-05 -5.689001955190515e-05 1.421858986364734e-26)
(8.703516641056133e-05 -5.995831668675663e-05 -2.550265033863553e-26)
(-9.120390823675595e-07 5.562448036992793e-06 -3.753669339754211e-25)
(-3.809280210354735e-06 2.48617676946907e-05 -4.597597079193832e-25)
(-1.029580113993879e-05 4.719434791625705e-05 5.941259423887659e-25)
(-2.488070887426293e-05 6.550776250267539e-05 3.490180575267523e-25)
(-4.599782214580993e-05 7.791104177107387e-05 -5.63984683214704e-25)
(-7.07465218479988e-05 8.473622293677399e-05 1.394232518333209e-24)
(-9.822518468440536e-05 8.30196768335181e-05 -3.780649421225784e-25)
(-0.0001270105482454821 7.376715416576567e-05 3.481937934298865e-25)
(-0.0001509549081079324 6.014872982650904e-05 -4.422362271988943e-25)
(-0.000173911591595614 4.216020381674126e-05 3.470073488871002e-26)
(-0.0001867649983830985 2.542164556907736e-05 1.536155196778876e-25)
(-0.00019581178391171 1.092821834903429e-05 -4.801071064373597e-25)
(-0.000197689770823745 8.349124702772405e-07 -7.235278269209427e-25)
(-0.0001939743002588089 -3.437321770534415e-06 3.80401200856997e-26)
(-0.000185979860390378 -3.789519542758782e-06 2.83274721786988e-26)
(-0.0001774733805338384 -1.123575780005375e-06 3.799948958636358e-25)
(-0.0001700901627530128 3.806558275530836e-06 -2.394074400876985e-25)
(-0.0001638366509619548 6.504175412402965e-06 -2.567362230828698e-25)
(-0.0001638001550312685 1.245233439709927e-05 -4.920037377517566e-26)
(-0.0001682484479085144 1.509022735403093e-05 -5.888779269331632e-25)
(-0.0001756103966388312 1.470466609544588e-05 -1.262220354529495e-25)
(-0.0001838974993229321 1.080965049072119e-05 3.186201584756785e-25)
(-0.0001917865929396002 3.406755601864156e-06 -6.043662761356894e-26)
(-0.0001978141745073451 -7.181731677954253e-06 4.173605000518127e-25)
(-0.0002006314627936735 -1.981444343165022e-05 3.539669767029548e-25)
(-0.0001984911214217905 -3.354784415609565e-05 -2.773155957232451e-25)
(-0.0001906624227795912 -4.652041032882478e-05 2.642774263482299e-25)
(-0.0001768257202390832 -5.680978304931513e-05 3.816180516640314e-25)
(-0.0001575909453495487 -6.508417795068628e-05 -1.574205411195059e-25)
(-0.0001329200778297656 -7.137035509184704e-05 3.339034046481719e-25)
(-0.0001032751217183666 -7.495826942835172e-05 -2.88354310338836e-25)
(-7.079414507524415e-05 -7.623339138960455e-05 1.330244431502892e-26)
(-3.793508627427725e-05 -7.555132988386428e-05 -8.050283857746583e-27)
(-6.884103637760061e-06 -7.06331137760882e-05 4.049413896389093e-28)
(2.076302134183721e-05 -6.800046821214405e-05 8.170696208749341e-26)
(4.37392782803578e-05 -6.836072411263224e-05 1.378954300281697e-25)
(6.189464174407552e-05 -6.506691661940548e-05 9.056961443156627e-27)
(7.683959980799165e-05 -6.487136259364921e-05 -1.329987958804851e-25)
(8.897153828375542e-05 -6.798665640923485e-05 1.762073560185421e-26)
(0.0001033813641438448 -7.248973856203539e-05 2.511063211084765e-26)
(-8.704680503187802e-07 7.65127340558655e-06 -9.333290342932958e-25)
(-3.982913154988541e-06 3.068929307400959e-05 1.656288621493644e-24)
(-1.141246423176198e-05 5.869017187052832e-05 1.032507577462786e-24)
(-2.63918037775086e-05 8.403872010990619e-05 -4.319952390545497e-25)
(-4.834058782060277e-05 0.0001025297974897766 6.741722675952345e-25)
(-7.414813550557994e-05 0.0001122982986411114 -7.962710725094491e-25)
(-0.0001024298805913809 0.0001116742496543893 -7.657957068323378e-26)
(-0.0001310236453124878 0.0001011066295090181 -4.736081219559272e-25)
(-0.0001554558453583532 8.37669330286909e-05 -7.314379162624856e-25)
(-0.0001767862338338139 6.140089323891887e-05 4.479702705742031e-25)
(-0.0001910081928586458 3.794411501766141e-05 -1.243400826543748e-25)
(-0.0001999790007587429 1.629012143750173e-05 2.716444970665034e-25)
(-0.0002025040926555565 -6.259644223221426e-07 8.883660848189403e-25)
(-0.0001993477973562789 -1.113298154574974e-05 -6.291029451457003e-25)
(-0.0001913347307654023 -1.433519031758464e-05 -1.812463544564528e-25)
(-0.0001816747130679331 -1.180525136066783e-05 -1.716330853233423e-25)
(-0.0001730678381505852 -4.860719718205802e-06 1.665437073868269e-25)
(-0.0001669920835796746 3.76611836384172e-06 -1.081680087409889e-24)
(-0.0001658864673803073 1.45645912048699e-05 -1.081722876862615e-24)
(-0.0001697415443631145 2.125448670590837e-05 4.104587700616806e-25)
(-0.0001765583928023952 2.330595260314595e-05 5.605210900758708e-27)
(-0.0001881499283578272 2.145425667054995e-05 -2.0320480436011e-25)
(-0.0001995757493927951 1.273817439656149e-05 -6.167013881288287e-25)
(-0.0002092841499509046 -9.990373028617778e-08 3.251590497993752e-26)
(-0.0002165183589117943 -1.742723455998045e-05 5.66792402523091e-25)
(-0.0002144030382480013 -3.834883120450655e-05 -3.275150285124696e-26)
(-0.0002117882918681185 -5.830029389556271e-05 -7.69320559147106e-26)
(-0.000190628518410616 -7.70167658745777e-05 -2.335468972579705e-25)
(-0.0001656778739893303 -9.070772283807845e-05 5.673151939582293e-26)
(-0.000135970520514247 -0.0001037522437821173 -3.25919474135971e-25)
(-0.0001033907519324656 -0.000107391072521562 6.549528256844626e-26)
(-6.990150750794431e-05 -0.0001090269799203618 -8.174539973327391e-27)
(-3.697848581954708e-05 -0.0001070827848694183 -4.351633364203477e-25)
(-6.858806527251092e-06 -0.0001009879226917934 2.325342408175801e-25)
(2.055530822597918e-05 -9.280762319136828e-05 -1.368698475710148e-25)
(4.340921641633067e-05 -8.60814539755032e-05 1.227280419358645e-25)
(6.255361519662405e-05 -8.064832087461887e-05 6.255756820194507e-26)
(7.954046102391773e-05 -7.948341172432203e-05 2.295829128360195e-25)
(9.508412180508231e-05 -8.483561116212709e-05 -7.481151004751875e-26)
(0.00011235146909907 -8.775896138728498e-05 -4.144372475014903e-26)
(-8.668736827114915e-07 9.411753493396092e-06 1.269162050150446e-24)
(-4.145405110236499e-06 3.62181584779487e-05 -1.748057032497935e-24)
(-1.218612360960573e-05 7.010006216001711e-05 -7.526398546673759e-25)
(-2.758447729847454e-05 0.0001017898058049496 9.491160857123907e-25)
(-4.977201904788715e-05 0.0001257971027559926 -9.114273495732539e-25)
(-7.646113588427415e-05 0.0001387508023154169 -7.092696589895357e-25)
(-0.0001053530876036075 0.0001391966848967565 -5.890481102878222e-25)
(-0.0001340184688344554 0.0001273667994962726 5.496071713602224e-25)
(-0.0001593763655188076 0.0001061265214006391 2.874849231695195e-25)
(-0.0001800208030111514 7.876685852000774e-05 -1.30147267857893e-24)
(-0.0001943598010139898 4.924792226832478e-05 4.020677483943275e-26)
(-0.0002021959047006704 2.175506822743915e-05 -2.098293898129098e-25)
(-0.0002037931324442898 -4.621421575840645e-07 -1.618153934612051e-25)
(-0.000200358495460276 -1.505818930938667e-05 2.37817030466299e-25)
(-0.0001936939125541512 -2.133621421423486e-05 2.808294002940597e-25)
(-0.0001856012246194872 -1.967416613113218e-05 -6.588501382799148e-25)
(-0.000178210731793925 -1.141736276149947e-05 2.358477625066065e-25)
(-0.0001740373136314141 7.620419123764388e-07 1.239778606516731e-24)
(-0.0001735335650856134 1.449013969480282e-05 4.558673097091627e-25)
(-0.000177316773094051 2.617023318054716e-05 1.755544732253192e-25)
(-0.0001852004909054467 3.285940539792511e-05 6.054782821798997e-25)
(-0.000196986691716534 3.305764233796341e-05 -5.674142591495659e-25)
(-0.000208798630102282 2.463189470052218e-05 6.379722427142475e-25)
(-0.0002203592645245173 9.238611903831277e-06 3.100041008620393e-25)
(-0.0002264009771450155 -1.399053282679978e-05 -2.916094628291219e-26)
(-0.0002274421714360767 -4.013923346159689e-05 -3.701174261617498e-25)
(-0.0002198176114938744 -6.942075030408733e-05 7.078871105977528e-26)
(-0.000205493328143208 -9.665254573119054e-05 -2.826503341933371e-25)
(-0.0001816560272110726 -0.0001199908372480377 -9.381630634431713e-25)
(-0.0001511468062509627 -0.000135688880767139 -1.566934767605731e-25)
(-0.0001154580175023147 -0.0001429612056529848 3.117998770546433e-26)
(-6.994582223250828e-05 -0.0001438558261225145 -4.674633455820865e-26)
(-3.921639666303058e-05 -0.000139422167543836 1.482099620653708e-25)
(-3.408472045714542e-06 -0.0001299849047702644 -5.146238145857281e-25)
(2.741798819286671e-05 -0.0001190768069635887 2.163550118021142e-25)
(5.199830535176942e-05 -0.000108962906935451 -9.648227014940098e-26)
(7.671227214803038e-05 -0.0001012597488561326 3.284953524324315e-26)
(9.270858281708563e-05 -9.711361365727452e-05 -2.413917904077232e-25)
(0.0001065187004938742 -9.838940810500511e-05 7.637534041746774e-26)
(0.000115893787603807 -0.0001033674813867215 -1.366570464648114e-26)
(-8.402957868926569e-07 1.125845523590839e-05 -8.007340923245054e-27)
(-4.173054708260305e-06 4.272804453178503e-05 4.318616699376038e-25)
(-1.270847332367683e-05 8.287892657692504e-05 -1.053710485156301e-24)
(-2.872485003287525e-05 0.0001210865049380509 -2.66849120207943e-24)
(-5.143089708673834e-05 0.0001509163525599105 1.936632072640851e-25)
(-7.884039075785971e-05 0.0001676223958139309 1.321333991048537e-24)
(-0.0001087402798934325 0.0001688339061234717 9.684260777411719e-25)
(-0.0001380428288290836 0.0001551317995467268 1.431983530805218e-24)
(-0.0001639305007326224 0.0001295261791843082 4.979182238266089e-25)
(-0.0001846944105006599 9.6175556619399e-05 5.935831793252838e-25)
(-0.0001988166142926079 5.999010286240796e-05 -6.817163864233527e-25)
(-0.0002063272340526676 2.586922706405041e-05 -5.899885439854016e-25)
(-0.0002074911998967411 -2.063623693294749e-06 1.139074805830593e-25)
(-0.0002039740945298993 -2.084874868772441e-05 6.800595466302346e-25)
(-0.000197471339333907 -2.90943487145624e-05 -2.774421142883056e-25)
(-0.0001900105167219146 -2.713485365106338e-05 5.117472517847311e-25)
(-0.0001843370690890388 -1.659926668996978e-05 -4.222889338621022e-26)
(-0.0001813226521146921 -6.882906499637622e-07 -2.149460651895869e-25)
(-0.0001832421295991481 1.737429859947678e-05 -3.499903136189813e-25)
(-0.0001888195611653767 3.315104579590611e-05 -2.620707965075852e-25)
(-0.0001987186391419505 4.331992353339778e-05 -6.380929627663712e-25)
(-0.0002107765170398299 4.494497077244027e-05 6.37821175621901e-25)
(-0.0002228355112557833 3.613100792368327e-05 3.885014818392428e-25)
(-0.0002334846988199159 1.754939493382178e-05 -4.422510308129489e-25)
(-0.0002385302766516286 -1.071755824231534e-05 -2.823309004612474e-25)
(-0.0002386323391733993 -4.417144109929096e-05 5.743652477875915e-25)
(-0.0002293797514154141 -8.15055781339299e-05 -2.529634294422484e-26)
(-0.0002134636824642478 -0.0001164170098945001 -3.046841909796089e-25)
(-0.0001885282681074759 -0.0001469415589173163 3.384554078034659e-25)
(-0.0001574018447968728 -0.0001693093291739607 1.591093180890209e-25)
(-0.0001222900129284496 -0.0001820130568844747 3.593746509002942e-25)
(-8.219417589133366e-05 -0.000185526244584582 -2.00621490830211e-25)
(-4.426970473848393e-05 -0.000177248821138217 2.658849010104332e-25)
(-5.435508086063482e-06 -0.0001655164411956987 1.559402426511092e-25)
(2.668592481634356e-05 -0.0001486557152240172 -2.731390829250949e-25)
(5.499020517340364e-05 -0.0001343031942392241 1.608868246590323e-27)
(7.568130781205774e-05 -0.0001205106163928345 -9.411684404786703e-26)
(9.356003662709082e-05 -0.0001122831695062427 9.498477413057387e-26)
(0.0001072083184007636 -0.0001094783054139436 1.794864890052697e-26)
(0.0001209034974918222 -0.0001147357526317457 3.890846405976916e-26)
(-8.489666617137208e-07 1.307532206692266e-05 -1.089398639582684e-24)
(-4.263077499380477e-06 4.942702243207239e-05 1.947061249919687e-24)
(-1.330889686922274e-05 9.575359301929605e-05 1.227642836444595e-24)
(-3.005911164682762e-05 0.0001402983512552252 2.310808713755541e-24)
(-5.319173569139792e-05 0.0001758946996260751 -5.681953135098543e-26)
(-8.111932411950202e-05 0.000196390163577672 -8.709059690751621e-26)
(-0.0001118949737828024 0.000198425624880922 -6.331901418085342e-25)
(-0.0001420102987836843 0.0001828056816346413 -1.811149561183701e-24)
(-0.0001685406453447092 0.0001529296291012845 1.007162900446004e-25)
(-0.0001897113166887898 0.0001137211548011922 -1.799061577618491e-25)
(-0.0002040618740732703 7.095786615522352e-05 6.515990450869537e-25)
(-0.0002116223830627345 3.042181460353334e-05 -2.471039552273598e-25)
(-0.0002127939460416737 -2.918570465659172e-06 -1.098429697903966e-24)
(-0.0002093698684180822 -2.543694709723116e-05 -7.010093385470852e-25)
(-0.0002031841789329212 -3.537525002488707e-05 1.944954888357372e-25)
(-0.0001965557558810982 -3.294818008867085e-05 2.682523223312111e-25)
(-0.0001918891286385523 -2.006144045857156e-05 -1.243225507381543e-25)
(-0.0001903817647874728 -3.66384247983334e-07 5.261258652132641e-25)
(-0.0001936885099190732 2.195382564859444e-05 3.544083984584738e-25)
(-0.0002010141683223569 4.173871726815009e-05 5.826673841853849e-25)
(-0.0002122941404187907 5.475473825331793e-05 8.195864195783705e-25)
(-0.0002252724122169719 5.732075679998536e-05 -1.163304145473393e-24)
(-0.00023796603615836 4.731167152905537e-05 -5.256357685125097e-25)
(-0.0002481445382920268 2.49910340357825e-05 -7.207662612985749e-25)
(-0.0002527568061829338 -8.857485577117056e-06 -5.3844602909128e-25)
(-0.0002511132512835016 -4.971930134010284e-05 -5.090576736412789e-25)
(-0.0002406868117961309 -9.471998687147176e-05 2.725065952650171e-25)
(-0.0002226396870381021 -0.0001376411319248426 4.181515142180078e-25)
(-0.0001964537453546561 -0.0001752320362475681 8.790816557601837e-25)
(-0.0001640772571146771 -0.0002033018732108865 -8.863229289389795e-26)
(-0.0001276725608482239 -0.0002191500269050217 5.601351673455591e-26)
(-8.819742761235902e-05 -0.0002234809603454131 5.331872269362062e-25)
(-5.04878728573597e-05 -0.0002149106177615075 6.070877467215639e-26)
(-1.337775444351082e-05 -0.0002002664706316936 1.525682766643589e-25)
(1.824381571724987e-05 -0.0001791639202013893 4.376425644778166e-25)
(4.534164322599162e-05 -0.000158737799679644 -1.328139375903007e-25)
(6.712340348755351e-05 -0.0001401880480263972 1.082389997027891e-25)
(8.632574035111074e-05 -0.0001289154896549535 -2.930474707206533e-25)
(0.0001010584610466448 -0.0001245574281226034 -9.60732829485132e-26)
(0.0001184270319010899 -0.000129987681853239 -3.21521813095193e-26)
(-8.600298773378121e-07 1.487337089335221e-05 1.52778980807328e-24)
(-4.337172363889738e-06 5.649022035038931e-05 -6.60159965898174e-24)
(-1.383001083047373e-05 0.0001094096139397784 -4.077278762562051e-25)
(-3.141865148637929e-05 0.0001602953643383294 -2.196322753698782e-24)
(-5.509456719211123e-05 0.0002016366782562452 2.247152283948056e-25)
(-8.341303953318293e-05 0.0002262235611861957 -1.556718262715858e-24)
(-0.0001150611379243488 0.0002293378559045192 7.138475740923287e-25)
(-0.0001462939536575247 0.0002116868675705793 2.258905056639758e-25)
(-0.000173781240223682 0.0001772357464905728 -2.252818845371681e-24)
(-0.0001956849904029938 0.0001317546086207031 -3.484684994885985e-26)
(-0.0002105632048628039 8.199695441225477e-05 2.14266334560893e-24)
(-0.0002184105935799727 3.47542693958229e-05 1.15179798739084e-24)
(-0.0002197619072010573 -4.14146911697703e-06 1.325268261383351e-24)
(-0.0002164944404407748 -3.036369649713815e-05 -1.283950003233258e-24)
(-0.0002106157087810079 -4.174962120488682e-05 -7.080967949087e-25)
(-0.0002045307472134866 -3.845616637956011e-05 1.25738872722036e-24)
(-0.0002006686813741379 -2.272857604771916e-05 -5.374082951561373e-25)
(-0.0002003089056875928 1.114050951704923e-06 -6.811735136948681e-25)
(-0.0002049482018974677 2.799671483137543e-05 6.742078288453276e-25)
(-0.0002137707544466495 5.184599146828227e-05 -2.354394742377851e-24)
(-0.0002264420291430564 6.755383367916395e-05 1.511073018927154e-24)
(-0.0002406017989778458 7.077506917428379e-05 1.442045188632915e-24)
(-0.0002540426249093682 5.89663877967846e-05 2.383962020696188e-25)
(-0.0002645613910560637 3.246316632348461e-05 1.511270005242601e-24)
(-0.0002689433605315608 -7.716592953594664e-06 6.328701120088063e-25)
(-0.0002667309666340695 -5.623125736689438e-05 9.402059289349525e-26)
(-0.0002552760337053732 -0.0001096455994277135 -3.751255003395062e-25)
(-0.0002360101478572074 -0.0001606357928518651 -2.075964188972587e-26)
(-0.0002085227390707233 -0.0002052261129815338 -1.552508738347225e-24)
(-0.00017475737176238 -0.0002384941618983219 4.372317462645739e-25)
(-0.000137541549642473 -0.0002571955735487602 8.9209482047176e-26)
(-9.737458242267834e-05 -0.0002623976814077403 -2.685640757173065e-25)
(-5.984011499931481e-05 -0.0002522706039180228 2.728377509722139e-25)
(-2.276883543416569e-05 -0.0002342542237568881 4.499877271124585e-25)
(8.211738193164368e-06 -0.0002082235332229922 -2.324946621477618e-25)
(3.597052767841349e-05 -0.0001832197814753822 3.144928517058789e-25)
(5.84344953621013e-05 -0.0001607339162422995 1.52889487032206e-25)
(7.988178073854588e-05 -0.0001472617778177171 5.662531923784342e-27)
(9.69251217230062e-05 -0.0001419695785559298 1.002112949131421e-25)
(0.0001182702034848408 -0.0001483368929072716 6.922969838700493e-26)
(-8.768496697327673e-07 1.665209778254969e-05 3.773854340297171e-25)
(-4.438452350377653e-06 6.387337783222551e-05 5.715861621546525e-24)
(-1.435323322473668e-05 0.0001238107488025129 5.709545918891404e-26)
(-3.286292181783532e-05 0.0001809562756648373 2.052683190675694e-24)
(-5.721896584737173e-05 0.000227733185045743 3.785411590361108e-25)
(-8.574074819539757e-05 0.0002565062019937856 1.196160894978736e-24)
(-0.0001180463430810652 0.000261055177373163 -1.584802032353694e-25)
(-0.0001505880257861709 0.0002415405096149121 -1.556100856625696e-24)
(-0.0001794079610576656 0.0002024773459504511 3.27460854195116e-24)
(-0.0002023732271078416 0.0001505859958997318 3.615764555673808e-25)
(-0.000218033736133758 9.367211825076584e-05 -1.135258780537205e-24)
(-0.000226401357874147 3.961083021262037e-05 -1.575438747040962e-24)
(-0.0002280794859410495 -4.852936858903239e-06 -1.368062410400319e-24)
(-0.0002250836489964965 -3.469584307463254e-05 2.325980828616699e-24)
(-0.0002195258723268087 -4.737447096401127e-05 3.644913691618983e-25)
(-0.0002139417096458508 -4.304065588216887e-05 -5.157449550266296e-24)
(-0.0002108201406541274 -2.428184130752322e-05 7.180996542280057e-26)
(-0.0002114721294654031 3.860301709220789e-06 1.167037245782918e-24)
(-0.0002173687161917927 3.541946737823205e-05 -2.069771087358956e-24)
(-0.0002275666030711212 6.33090531191442e-05 1.885173348344592e-24)
(-0.0002416789377196717 8.155878043859127e-05 -2.825667107156993e-24)
(-0.0002571030062782312 8.514048748373331e-05 -1.468057042435739e-24)
(-0.0002716136260398132 7.119570661260186e-05 -5.238673868204182e-25)
(-0.0002828151483089095 4.011129872736605e-05 -2.057456343468714e-25)
(-0.0002874973535711354 -6.757838548664352e-06 6.931178256618871e-26)
(-0.0002851983863704559 -6.331501215672361e-05 1.054946401330486e-24)
(-0.0002731806768218487 -0.0001254227472978337 -4.646142662724143e-25)
(-0.0002530991626716795 -0.0001846221153249228 -9.354020621641513e-26)
(-0.0002244020275811159 -0.0002363255263035832 1.384446981551286e-24)
(-0.0001894088109993143 -0.0002746706965574323 5.54522481924724e-25)
(-0.0001509715998898783 -0.0002962224800966321 -2.652873083359036e-25)
(-0.0001097459896248523 -0.0003017273173693938 4.472269542377497e-25)
(-7.150418219067246e-05 -0.0002897377129703769 -4.019012739001095e-25)
(-3.362793092317304e-05 -0.0002682946798482482 -4.154034481339075e-25)
(-2.22367586410618e-06 -0.0002379647061703023 2.442408849866072e-25)
(2.703056347336414e-05 -0.0002090650576072326 -7.144077074905193e-25)
(5.103894159399311e-05 -0.0001834133040510175 -1.285411781013984e-26)
(7.528461109564593e-05 -0.0001682673462145338 2.433129971508482e-25)
(9.51217761698249e-05 -0.0001628219541687123 -4.099021720363829e-26)
(0.0001203493194261614 -0.0001706871836449081 1.057682040324691e-26)
(-8.971409238817098e-07 1.846861121776229e-05 -9.827535353972066e-25)
(-4.563516653276631e-06 7.158787590033592e-05 1.778209928070189e-24)
(-1.489648676992079e-05 0.0001388589018084771 1.052977529259724e-24)
(-3.435124382203224e-05 0.0002023325969891908 1.36295939310421e-24)
(-5.95890724450067e-05 0.0002542583117312114 -1.171618170022293e-24)
(-8.82176755506842e-05 0.0002872841749272512 1.044668449536736e-27)
(-0.0001206926919435084 0.0002938704315503312 -2.982220954709871e-25)
(-0.0001544776585934963 0.0002728826503422328 2.186401095250834e-24)
(-0.000185177673277072 0.0002291032474583614 -3.542187747947981e-24)
(-0.0002098803671457504 0.000170491361371652 -6.656801451468837e-26)
(-0.0002268328949831455 0.0001061163681694365 -8.351138503879199e-25)
(-0.0002359562263696614 4.494896113374681e-05 1.672400721375503e-24)
(-0.0002379418258553366 -5.333388367525501e-06 4.633633720204383e-25)
(-0.0002351185540275874 -3.890959069197988e-05 -8.060157780673772e-25)
(-0.0002297743689222762 -5.280141224704752e-05 -3.993553889331882e-26)
(-0.000224608736854849 -4.721087577235458e-05 2.917078961501223e-24)
(-0.0002221341452554901 -2.513357459523277e-05 -1.160449956361491e-25)
(-0.000223747027084352 7.610427019168869e-06 -3.08447853977216e-25)