/*--------------------------------*- C++ -*----------------------------------*\
| =========                 |                                                 |
| \\      /  F ield         | OpenFOAM: The Open Source CFD Toolbox           |
|  \\    /   O peration     | Version:  2206                                  |
|   \\  /    A nd           | Website:  www.openfoam.com                      |
|    \\/     M anipulation  |                                                 |
\*---------------------------------------------------------------------------*/
FoamFile
{
    version     2.0;
    format      ascii;
    arch        "LSB;label=32;scalar=64";
    class       surfaceScalarField;
    location    "3";
    object      meshPhiCN_0;
}
// * * * * * * * * * * * * * * * * * * * * * * * * * * * * * * * * * * * * * //

dimensions      [0 3 -1 0 0 0 0];

oriented        oriented;

internalField   nonuniform List<scalar> 
35915
(
1.587720296194383e-18
7.73067304271824e-14
2.619024837103739e-18
2.305832671060375e-13
4.211518677092933e-19
3.801168771901694e-13
6.492537640166554e-18
5.239342282743798e-13
-7.808799742265868e-18
6.60221409644038e-13
9.620157983341032e-18
7.875073814616388e-13
1.068594759129163e-17
9.046360009170617e-13
-5.281281506670537e-18
1.010713757247432e-12
2.650329920950048e-18
1.105147156236608e-12
1.253852130289284e-17
1.187587634437668e-12
-5.794707827187586e-18
1.258138118931037e-12
6.569323454275541e-18
1.317216965996854e-12
-7.358310322062781e-18
1.365608205582972e-12
5.904784592446781e-18
1.404482138024026e-12
3.060992960917382e-18
1.435434830469281e-12
-2.176211115555989e-18
1.460494730346322e-12
5.385994937605773e-18
1.482065134996114e-12
-1.561658460179992e-18
1.50297749428058e-12
-7.386500966177039e-21
1.526352512072405e-12
-5.982410634587144e-19
1.555818190389935e-12
-2.659523149181244e-18
1.595250820863538e-12
-2.276799724596165e-19
1.64884952299214e-12
1.378487969012103e-18
1.721180451486536e-12
-3.677554104341973e-18
1.816967074837719e-12
-1.608020644959699e-18
1.9411749904333e-12
3.349173964987908e-18
2.098766831910677e-12
-3.631019671914846e-18
2.294919679106714e-12
1.810353743365895e-18
2.53469661603433e-12
-2.426623143765346e-18
2.82310088915723e-12
1.034026956933466e-18
3.164992510525492e-12
2.699301354996022e-18
3.564806351798857e-12
1.677007380366676e-18
4.026632713172705e-12
3.783491609894156e-19
4.554047590943813e-12
-8.797154731971074e-19
5.149932526041074e-12
2.446174085526623e-18
5.816319982885191e-12
-1.33362633538338e-18
6.554200636329423e-12
1.757057218061351e-18
7.363445133744482e-12
8.657842435972444e-19
8.242485153142741e-12
-7.119091744396392e-19
9.188350578633113e-12
1.009520149524815e-11
-1.053933671069619e-19
4.215020576734152e-18
1.531207058058734e-13
7.618438885922754e-18
4.564773305752968e-13
3.914670606239145e-18
7.520974279644485e-13
-4.228033666412612e-18
1.035989872841145e-12
9.220312359152852e-20
1.304671191959377e-12
4.639902629366808e-18
1.555303922127187e-12
3.552134663264723e-18
1.785499996853053e-12
1.048209338149838e-17
1.993491025078985e-12
-7.125432413453793e-19
2.178030746823808e-12
3.07925818094278e-18
2.338565516436624e-12
4.804373588078898e-18
2.47515941649376e-12
-6.542143073827619e-18
2.588693703886858e-12
3.460800175783028e-18
2.680701611729357e-12
1.248259268625457e-17
2.753594026585898e-12
-4.788203366078328e-18
2.810519156640098e-12
-5.422517760569372e-18
2.855420576370171e-12
1.420065084453696e-18
2.893142284538722e-12
6.535027690204097e-18
2.929191286062156e-12
-2.090343696485168e-18
2.969973587487573e-12
3.086030265951457e-18
3.022533964733245e-12
-1.686386182068023e-18
3.094610696854993e-12
-1.877951464228089e-18
3.19462147814179e-12
5.57471756713922e-18
3.331516078677833e-12
-1.194949938065924e-18
3.514726929905961e-12
-1.726832091242578e-18
3.753993665083525e-12
-6.289563829544018e-19
4.059350314874938e-12
5.457767826858033e-18
4.441002206014508e-12
1.580686516081975e-18
4.909028292317676e-12
-2.122327126591673e-18
5.473428256590553e-12
-9.788277957193026e-19
6.143739254584356e-12
3.978935854973555e-19
6.928961401197633e-12
5.0423456539337e-19
7.837363914339191e-12
-2.072783998151892e-18
8.876101225424953e-12
-6.847625608169223e-19
1.005097583215759e-11
3.937378392019664e-19
1.136626141085586e-11
-5.371371691269909e-19
1.282417051363986e-11
1.848946132867059e-18
1.442468980432642e-11
-5.823247290331946e-19
1.616504070142195e-11
-3.017334467215999e-19
1.803942584502951e-11
1.983769058455434e-11
4.492279504767205e-19
6.809536661582431e-18
2.263190338164924e-13
2.690156301288103e-18
6.743873756854472e-13
-2.081001593445658e-18
1.110348543581193e-12
-2.940950771827606e-18
1.528427865078068e-12
6.473631582331845e-19
1.923351120383329e-12
2.069107376352716e-18
2.290892067689944e-12
-1.144093325231008e-19
2.627564263748034e-12
9.144479960218381e-18
2.930582387361491e-12
-1.700389265215229e-19
3.198160014322561e-12
-3.403170714908268e-18
3.42937760998075e-12
-4.367215875294651e-18
3.6243510418039e-12
6.464115084999902e-18
3.784296224148914e-12
6.661767639957295e-18
3.911602332945702e-12
-8.544979919664297e-18
4.009772865154219e-12
5.413590946389227e-18
4.083548134677974e-12
-1.267610664372102e-17
4.138808643332576e-12
-5.161590204658823e-18
4.182704923562119e-12
4.595888193198881e-18
4.223531929743884e-12
-2.548750206446172e-19
4.270768952813308e-12
-1.20312180519759e-18
4.334958699662361e-12
2.127598966002842e-18
4.427715143688295e-12
1.862275380298962e-18
4.561512905767603e-12
-6.171863464410447e-18
4.749756235942416e-12
1.381568111901231e-18
5.006432721036192e-12
-2.367912560490423e-18
5.346192899710433e-12
-2.691878619875953e-18
5.784000372320417e-12
-1.091930587638759e-18
6.335093568931238e-12
-1.317767899965723e-18
7.014613673727761e-12
-2.178503025521653e-18
7.83753379047755e-12
1.004648049147788e-19
8.818282755155594e-12
-2.200978717569812e-18
9.970486819885015e-12
-1.828505405843767e-18
1.130663566449849e-11
4.210833419006496e-19
1.283775990230737e-11
-7.648605898352545e-19
1.457298501750931e-11
5.043166741029823e-18
1.651908969362414e-11
-8.965095756807566e-19
1.868006298150685e-11
7.435701211782575e-19
2.105642410020859e-11
1.856403601809238e-18
2.36448592322279e-11
-1.355297968261255e-19
2.643737411991795e-11
2.91208673963674e-11
-4.680534243515716e-20
3.348949829251486e-18
2.957160171694009e-13
1.085254689572077e-17
8.808251573593132e-13
-3.890901631254468e-18
1.449331606871926e-12
-1.109361339136617e-18
1.993467727152893e-12
3.836203792385195e-18
2.506312609049398e-12
1.960006929226403e-18
2.982168308580496e-12
7.070502535401693e-18
3.416315754783226e-12
-1.546429958319146e-18
3.805053184227774e-12
-1.162299051665916e-18
4.145859191120951e-12
6.796303184552194e-18
4.437514879320709e-12
-7.197204696826026e-18
4.680160188320893e-12
-4.214261238570652e-18
4.875371793079455e-12
2.342697678528152e-18
5.026226224084914e-12
5.199907035002884e-18
5.137400287321265e-12
-4.259355481210333e-19
5.215081461034202e-12
6.46711060977575e-19
5.267152670250397e-12
-7.063065054942252e-18
5.303051530581272e-12
-6.226207168616454e-18
5.33384988814337e-12
4.600403739361349e-18
5.372047444116136e-12
-6.182644781391317e-18
5.43169832135415e-12
5.088565840920917e-19
5.528154110141159e-12
-2.596342507660379e-19
5.67807196194082e-12
-1.539223391726778e-18
5.899193805116137e-12
-3.307858927926096e-18
6.210194180575403e-12
2.433977936605195e-18
6.630520302873922e-12
1.360514418252239e-18
7.180174759882977e-12
4.017356827235735e-18
7.879418629115709e-12
-8.680314498140086e-20
8.748602723235159e-12
1.010403094723876e-18
9.807755012779433e-12
2.131364838815909e-18
1.107633739007027e-11
3.12926690262469e-18
1.257280611891814e-11
1.336250520573652e-18
1.431424426732378e-11
1.392136535475918e-18
1.631589002346746e-11
2.949241547627202e-18
1.85906025321171e-11
1.283264735286678e-18
2.114831187704095e-11
-1.3966529945435e-19
2.399530359097887e-11
-5.571987955037696e-20
2.7133693351053e-11
1.136992619071087e-18
3.056040501206078e-11
-1.043295608786811e-18
3.426641046017966e-11
3.783650316760407e-11
4.380856280736942e-19
3.449182106963864e-18
3.603957114599485e-13
1.870814247223824e-18
1.073116431409793e-12
-7.003725362563721e-18
1.764568875273547e-12
-3.68826510083587e-18
2.424925895015588e-12
-3.582149634897365e-18
3.045506687253304e-12
-1.06277498592943e-17
3.619067684856434e-12
4.434172176754943e-18
4.139667972950517e-12
6.860863366266e-18
4.602591632758662e-12
-4.877627490563315e-18
5.00459974800657e-12
2.88045432723872e-18
5.344042815402273e-12
7.826014058913554e-18
5.621019657305263e-12
-8.131346117059062e-18
5.837431655627287e-12
-9.126245549683329e-19
5.997050135153742e-12
1.227706712603864e-19
6.105638472970235e-12
-2.669444457211655e-18
6.17090526097994e-12
-9.432251870811943e-18
6.202627722240295e-12
-4.582796885017838e-18
6.212554927506841e-12
-8.89706450073357e-19
6.21437910536569e-12
-3.261888027821246e-18
6.223800522617935e-12
-2.384874333770324e-18
6.258220232666366e-12
-1.820427741230227e-18
6.336869857993674e-12
3.141738139152184e-18
6.480458142368824e-12
-5.754999544071934e-19
6.71119627572661e-12
2.085963879086494e-18
7.05241320394954e-12
-5.851856694009175e-19
7.528392071353614e-12
1.341975053504947e-18
8.164215206500096e-12
-2.386742589357675e-18
8.985320108428561e-12
5.242708148903001e-18
1.001731554902006e-11
2.876563634202144e-18
1.128555604576206e-11
2.644811380836586e-18
1.281464407800463e-11
-3.742367754164019e-19
1.462826548086918e-11
-1.83909715495102e-19
1.674843689700281e-11
1.130954215342188e-18
1.919510317420212e-11
6.004178051571315e-21
2.198547647508266e-11
3.087088944803777e-18
2.513338803507788e-11
1.937514932122447e-18
2.864837099593876e-11
-1.208651360129328e-18
3.253500138370811e-11
5.721681727747583e-19
3.679181016348084e-11
1.231981795796432e-19
4.141008689327544e-11
4.587307987607909e-11
3.817944806723243e-20
-6.139043335108826e-18
4.196227589304999e-13
9.081085709801341e-19
1.248887767760124e-12
-6.570950408362837e-18
2.052037247411637e-12
7.924833351476903e-18
2.817146847875058e-12
-1.048212752558147e-17
3.533624460221015e-12
-8.474234493144934e-18
4.192656967981513e-12
4.141860235327456e-18
4.78690225386062e-12
-4.621862293654675e-18
5.310518720093141e-12
1.812325566203072e-18
5.759529585936291e-12
-1.300387688237464e-17
6.131838469706185e-12
-1.350217688485621e-18
6.427416674507902e-12
1.097401520770777e-17
6.648406459263144e-12
-6.758258077818906e-18
6.799258308505683e-12
-7.522276321392328e-18
6.886754242206948e-12
1.208579701724285e-18
6.920127375155856e-12
-8.621749351746522e-18
6.910950975422826e-12
-1.045976200294269e-18
6.873294729516424e-12
5.398347708159072e-18
6.82353742921369e-12
-1.873645917074188e-19
6.780463634857626e-12
-7.259664263478321e-18
6.764911275108308e-12
1.044721595432527e-18
6.799904827967948e-12
1.497466501403337e-18
6.910370043397219e-12
-2.163908893178478e-18
7.122851988679708e-12
2.324852100947189e-18
7.465462353617158e-12
6.211347836441608e-18
7.967394239322405e-12
4.106727991446821e-18
8.658866037385536e-12
3.980499166492221e-18
9.570622434077489e-12
-1.534124421404661e-18
1.073365498919888e-11
-2.315025174134151e-19
1.21788167060786e-11
3.257525587542594e-18
1.393628203421801e-11
1.575419932056042e-18
1.603513103710701e-11
1.114448174330372e-18
1.850289969980243e-11
-1.431000918353391e-19
2.136480427488459e-11
-7.323270285436952e-19
2.464312287610768e-11
1.837945501502543e-18
2.835644318304028e-11
9.594262070077118e-19
3.25187177337232e-11
3.287074447638103e-19
3.713821551862224e-11
9.029822081243486e-19
4.221640528781524e-11
1.41081581003797e-19
4.774678588394571e-11
5.311154063328912e-11
-1.413810092933378e-19
-7.021175161294523e-19
4.72644212319127e-13
-6.043498104078553e-18
1.406024029802842e-12
1.581026846441808e-18
2.308378482082921e-12
-1.986394443359135e-18
3.165404410541765e-12
-3.935385936689068e-18
3.964530000804173e-12
-2.903951677127127e-18
4.695224540820101e-12
3.200212669989037e-18
5.348658703168558e-12
-1.213008666329913e-17
5.917885544692269e-12
5.244320195228317e-18
6.397945581636512e-12
1.451861371704913e-18
6.786211482365066e-12
-2.004848566179506e-18
7.082479636478368e-12
1.38014091339959e-18
7.289129128062045e-12
1.111383912056715e-17
7.411163170466432e-12
-2.849831673103019e-18
7.456415762034339e-12
-3.821864797816688e-20
7.435479033082103e-12
-3.143668350780791e-18
7.36182947712617e-12
-4.151238794550234e-18
7.251783919521735e-12
2.341587711916687e-18
7.124395628162352e-12
-3.652863495048815e-19
7.001496300613994e-12
2.044419354560715e-18
6.907463658997263e-12
3.739653615008318e-19
6.869103662087888e-12
7.72657402254334e-19
6.915463072504375e-12
4.974208355114724e-18
7.077605172520158e-12
-1.24821017271144e-18
7.388377153567428e-12
1.892651864421429e-19
7.882054670091314e-12
-4.464806966082416e-19
8.593960635639933e-12
-2.381187115004988e-18
9.560382108695195e-12
1.166078729147269e-19
1.081775434707283e-11
-2.945371966160397e-18
1.240270358548893e-11
2.644687005178627e-18
1.435122882440297e-11
-1.482866468752025e-19
1.669828287840687e-11
-3.065144933193071e-19
1.947731170153841e-11
-6.112815031853182e-21
2.271950754246916e-11
4.81249222673023e-19
2.64530348741291e-11
1.104330077363272e-18
3.070222889458692e-11
1.519858406018646e-18
3.548659359491698e-11
-5.45363328016416e-19
4.081966040111123e-11
-7.290949568160341e-19
4.670768764176062e-11
1.090353050029569e-18
5.31481057642189e-11
5.942318193929598e-11
1.280572212102462e-19
-3.437813469463653e-19
5.189114715874321e-13
-4.63842874324642e-18
1.542955571761659e-12
2.875509502685986e-18
2.530827752182146e-12
-9.85691011058703e-18
3.465832633584701e-12
-6.460005633333112e-18
4.333193203875889e-12
1.764749062363604e-18
5.120547566228301e-12
-3.43671559762898e-18
5.817452362925851e-12
5.226130794889757e-18
6.415640480153907e-12
8.323853592636061e-20
6.909185059025649e-12
-7.903303526155001e-19
7.29480236109338e-12
-3.886300028095824e-19
7.572100266685582e-12
1.026239362878245e-17
7.743470311260388e-12
-6.838758351065306e-18
7.814478159927313e-12
-8.915476076806829e-20
7.793952731975014e-12
-1.148525229238937e-18
7.693837177610027e-12
-6.226016722306423e-18
7.529416997915852e-12
4.064401129332565e-18
7.319292919296049e-12
-2.476472762321851e-18
7.08516753342375e-12
6.067700023415971e-19
6.851957004437477e-12
2.403905915830761e-18
6.647502619774553e-12
6.900349807178553e-20
6.502455941193272e-12
-2.711004072550987e-18
6.450070866295899e-12
-2.078806635592237e-18
6.525931775451306e-12
4.105172878146177e-19
6.767622141124336e-12
-3.490543143098001e-18
7.214490755974059e-12
1.205274834601102e-18
7.907288047164575e-12
-5.145898414105647e-18
8.887674820452e-12
-2.466450692686141e-18
1.019792225550085e-11
8.490616727830615e-18
1.188047186186459e-11
-1.030102020577393e-18
1.397743681511441e-11
-9.424000585023314e-19
1.653009125782891e-11
-1.421572175974289e-18
1.957826896779799e-11
-3.162437297798818e-19
2.315971133187013e-11
-1.264495802672948e-18
2.730936195278682e-11
5.515581059834297e-19
3.205845914118556e-11
5.231638991116781e-19
3.743339756561691e-11
-2.174427896872859e-19
4.345456477077051e-11
-1.491616973623168e-20
5.013491587986068e-11
3.941715498477505e-19
5.747817877422334e-11
6.466853590768922e-11
-6.751091773893315e-20
5.306695551526269e-18
5.580788676576034e-13
-2.344780882421048e-18
1.658454100655696e-12
1.683715657564717e-18
2.717373529693415e-12
1.474635458552588e-19
3.715538605661714e-12
3.77981807669446e-18
4.635807800717301e-12
-6.534585834135223e-18
5.463858509674472e-12
-1.610447530617987e-18
6.187483704590627e-12
-1.263951550822381e-18
6.796904798762478e-12
-1.300818676845166e-19
7.285168171609425e-12
1.288415067651709e-18
7.648215404033654e-12
-6.548016016684338e-19
7.88521691659248e-12
-5.663111169017753e-18
7.998707254849435e-12
-5.657268791098052e-19
7.994670189907993e-12
3.249647349237255e-18
7.882841208007682e-12
2.570681061091265e-18
7.676493612315013e-12
-4.107338420616975e-19
7.392733904608203e-12
-3.182485758181964e-18
7.052341303050979e-12
3.002215541710328e-18
6.679737806020616e-12
1.979205467872365e-18
6.302861330064353e-12
4.19688875575101e-18
5.95309009624728e-12
7.211725612740388e-18
5.664942959952728e-12
-6.416409648799552e-18
5.475825639986484e-12
-2.281436373294321e-18
5.425951181927121e-12
1.876876030184416e-18
5.557710245752067e-12
4.039986286099795e-18
5.915509848976246e-12
-5.690604089374883e-20
6.54545528888935e-12
4.879987637304577e-18
7.494823148292979e-12
1.81893094739757e-18
8.811752621461495e-12
-8.125676363205539e-19
1.054469287406333e-11
-3.752749031357941e-18
1.274208812242266e-11
2.61815954659476e-18
1.545175054376616e-11
-2.114684087725219e-19
1.87204149026765e-11
-7.323060617571906e-19
2.259309607629896e-11
5.7479033074207e-19
2.711228193802299e-11
6.409876933531887e-19
3.231715321933104e-11
7.902360621758939e-19
3.824248169219283e-11
1.319460774973826e-18
4.491729409820651e-11
1.369494145943886e-18
5.236340421946571e-11
-1.249975195586098e-19
6.059346127632078e-11
6.869656171135755e-11
-5.152763481257465e-20
-1.93692310004267e-17
5.898495616310604e-13
-3.470061661385703e-18
1.751766579529786e-12
8.449946382194486e-18
2.866776597523406e-12
-2.990411520066306e-19
3.912782392063255e-12
-1.872917819492528e-19
4.870117808341948e-12
-1.607356369836422e-18
5.722233930615618e-12
-6.118824747807496e-18
6.455031457301242e-12
5.845143636650177e-18
7.057161832147273e-12
1.667647901896541e-18
7.520398085005255e-12
1.662156212292085e-19
7.83984472762225e-12
1.308122623704101e-17
8.014169727068427e-12
2.910640564970229e-18
8.045826458450149e-12
-3.288495335379945e-18
7.941261319900303e-12
4.692797157339944e-18
7.710968999858396e-12
1.392905427160341e-21
7.369607229889041e-12
5.091522652109711e-18
6.935978358599462e-12
3.064866052693874e-18
6.433102028633723e-12
6.537357687327288e-18
5.888037988025895e-12
5.273548153003157e-19
5.331848309337517e-12
-4.402626824037625e-18
4.799395939033787e-12
-3.186478864717848e-18
4.329043304732798e-12
1.713598542309084e-18
3.96249911472e-12
1.243956390773615e-18
3.744421430082436e-12
-1.464837554209017e-18
3.722143301677921e-12
-5.267541406847149e-18
3.945173987356554e-12
9.284242538695604e-20
4.464960810737606e-12
-5.374281114489019e-19
5.334354053064932e-12
-1.514055665943001e-18
6.607378882999124e-12
1.460555340011374e-18
8.338627928471523e-12
1.190342408395668e-18
1.058290602790396e-11
-6.908076977913686e-21
1.339485993075383e-11
-2.664065100885921e-18
1.682843868347609e-11
1.952910543736587e-18
2.093645093688184e-11
1.358182495416867e-18
2.576969860905268e-11
-3.111639768360337e-18
3.137636755361272e-11
-8.677981525987064e-19
3.780102222574237e-11
-7.511012537564306e-19
4.508318444952794e-11
8.69900396859278e-19
5.325588840910137e-11
-9.185365274966041e-19
6.234353955657682e-11
7.134512260084089e-11
-3.740028627905151e-19
-2.092884899812066e-18
6.141372120427949e-13
-1.262924325679755e-18
1.822631643420028e-12
3.315402481013621e-20
2.978611250803277e-12
-4.544421370425559e-18
4.056888173843981e-12
4.368776251486468e-19
5.035124232976977e-12
9.42677737626441e-18
5.894393218105181e-12
-1.944992416042259e-18
6.618502173030436e-12
-3.214091941096617e-18
7.194335360019485e-12
3.052366036139185e-18
7.612261114468838e-12
-2.927756461107389e-18
7.866357543253455e-12
4.553625398501454e-18
7.954729289848134e-12
-1.355732754212232e-17
7.879751785274877e-12
6.150926098832773e-18
7.648088706818993e-12
-6.590175074366617e-18
7.271001372292559e-12
3.928232890711104e-22
6.764459266359132e-12
1.41562585894713e-17
6.148998825350311e-12
3.28976738580701e-18
5.449763807984585e-12
-5.033124803462565e-20
4.696585260356295e-12
1.517596978904041e-18
3.9235601431333e-12
-4.173703175628202e-18
3.169059767021478e-12
-2.046011351511581e-18
2.475365110899691e-12
-3.332058730409149e-18
1.888371375446482e-12
5.305921874840436e-18
1.457367357454408e-12
6.82428056659059e-19
1.234450104079507e-12
2.331599838101286e-18
1.274230572995477e-12
2.489337649725353e-18
1.63343980732638e-12
-3.208631785932751e-18
2.370493769632719e-12
-1.342768773862761e-18
3.545134517274132e-12
-1.550106931699226e-19
5.217995096343938e-12
-2.334338995176113e-19
7.450379835541447e-12
8.824592090944114e-19
1.030370144906452e-11
2.1964022018191e-18
1.38393491109401e-11
6.911709429388855e-19
1.811818470431743e-11
-5.432253064658822e-19
2.319998856240245e-11
-2.641708532368746e-18
2.914294103674351e-11
-4.200335797761211e-19
3.600267894879968e-11
-2.29665994006741e-18
4.383108987749557e-11
1.683500573152059e-18
5.267482659877966e-11
-8.462781379421348e-21
6.257318810019666e-11
7.244236351357913e-11
1.549049291897246e-19
-2.804400189440024e-18
6.310558959553803e-13
-9.350859988707824e-18
1.871351443225528e-12
-1.135461210473563e-17
3.053299753197198e-12
-9.013373691826821e-18
4.148483206775168e-12
-1.145853096839147e-18
5.131604220518602e-12
2.598626751600687e-18
5.981119776896094e-12
-3.415255361681192e-19
6.678601142597366e-12
6.352069968675942e-18
7.208962670757215e-12
-6.509225957906612e-20
7.561051388504419e-12
-6.635501652402956e-18
7.727815800337995e-12
5.494991639936106e-18
7.706609477483875e-12
-1.102700079931167e-17
7.499505797454322e-12
1.633933837090828e-18
7.113515442781213e-12
1.505709667298671e-18
6.560574936428311e-12
-1.558561652228469e-18
5.857802002422792e-12
2.014179535649919e-18
5.0274794351861e-12
-3.112585640047113e-18
4.097032406310937e-12
2.802972709808546e-18
3.098834141068659e-12
2.989454464716665e-19
2.070159788812413e-12
1.180918642700876e-18
1.052876535538454e-12
-4.254442520349292e-18
9.318842508570349e-14
2.620722999173701e-18
-7.587163039728388e-13
-4.918029613737484e-18
-1.449096095635803e-12
-1.002740184612524e-18
-1.921095704264427e-12
-1.48656382814546e-18
-2.115077053239389e-12
-2.709764817395767e-18
-1.969174170637893e-12
1.188801506961244e-18
-1.419568778793599e-12
2.680895120824783e-18
-4.010220793959432e-13
4.29061995277833e-18
1.152980345815232e-12
1.132230017685246e-18
3.309830183197892e-12
8.549556014882609e-19
6.137684706942495e-12
1.124656099608445e-18
9.70520532437613e-12
5.887216124159215e-19
1.408139536762582e-11
1.051625012822417e-18
1.933540638505259e-11
-8.110941712032391e-19
2.55360276649671e-11
1.888653543254562e-19
3.275119033457051e-11
8.833840720861984e-20
4.104689043352052e-11
-4.048584408297652e-19
5.048582065150327e-11
1.269805008620057e-20
6.112538476175411e-11
7.180939538420711e-11
-2.225297805374428e-19
7.18213929617382e-18
6.409112939210324e-13
4.388367944851101e-18
1.898737073458385e-12
-2.791608500662788e-18
3.092203943476486e-12
2.823455233003282e-18
4.189355913011715e-12
5.38061943302205e-18
5.161770069556433e-12
4.679947412069775e-18
5.98508141237612e-12
-1.068147405425007e-17
6.638327606890386e-12
7.473816431998997e-19
7.10434555766549e-12
1.212645786723432e-18
7.370278723916086e-12
6.77979446953512e-20
7.42771855670101e-12
-1.072619793328217e-18
7.27322012257934e-12
-2.909631090345951e-18
6.908536880358542e-12
-3.589981986610762e-19
6.340739913734376e-12
-4.340695817169608e-19
5.582469701603725e-12
-4.260072308592342e-20
4.652046943758074e-12
-7.066387091606443e-18
3.573431666399385e-12
1.135063691403857e-18
2.376206831358716e-12
2.279158602679098e-18
1.095458945289645e-12
2.683851967160455e-18
-2.283706791627397e-13
-3.507708519569236e-19
-1.54986684897052e-12
6.977868014493301e-18
-2.818909810183381e-12
5.560427977413964e-19
-3.981062187216968e-12
7.858977358002329e-18
-4.978152008303862e-12
1.975236756487842e-18
-5.748589734599845e-12
-5.528021825753327e-18
-6.227925161157739e-12
2.452247152793264e-18
-6.349321896853534e-12
2.662413350265615e-18
-6.043984776101898e-12
-2.654278081427484e-18
-5.241429983921955e-12
9.671097258254484e-19
-3.869789814193872e-12
-4.712213727983765e-19
-1.855990258956446e-12
-1.730186692333294e-19
8.742778867922062e-13
1.083352303966621e-18
4.396513526657253e-12
1.965139902992109e-18
8.787724541431804e-12
-7.225065918775258e-19
1.412618417e-11
1.63413023786395e-18
2.049173537196367e-11
-3.365158031181677e-19
2.796534402177123e-11
-7.771374149983586e-19
3.662862861647168e-11
1.221627913389236e-18
4.656263273398862e-11
6.039866946953436e-19
5.784612591157966e-11
6.926456999802906e-11
-1.303178873576322e-19
4.584181175845725e-18
6.440755585610171e-13
2.684784247812161e-18
1.906150121348796e-12
-4.403456433528933e-19
3.097625316258348e-12
-4.449227963011348e-19
4.182767703476123e-12
-1.455587910670161e-18
5.129741957555827e-12
1.315961841942569e-17
5.911119969578875e-12
-1.289551762646276e-17
6.503257876121245e-12
-2.168935492358879e-17
6.886697893819302e-12
-3.441697004890078e-18
7.046640783833877e-12
3.863040982350645e-18
6.973298950132502e-12
-7.942423047409118e-18
6.662240394990745e-12
-3.812018185534356e-19
6.114697532167436e-12
5.127416540052408e-18
5.337888184609241e-12
-4.190952486992497e-18
4.345013046559068e-12
-1.130062960183382e-20
3.155550231865469e-12
-1.622579421980832e-18
1.795146435713397e-12
-5.04267552816672e-18
2.956188400921801e-13
-5.875262059804578e-18
-1.305210116534534e-12
9.972051912372355e-19
-2.963751252884034e-12
4.22286363513562e-18
-4.63092070608884e-12
4.934791432101891e-18
-6.25270018426431e-12
-2.065843846723357e-18
-7.770416837778441e-12
-8.310579146852125e-19
-9.121405703108072e-12
-1.10812031050227e-18
-1.023956132703273e-11
2.592747887948777e-18
-1.105579437421533e-11
-1.350315637771882e-18
-1.149865226738909e-11
-2.13250929547534e-19
-1.149471150686872e-11
1.046247900579382e-18
-1.096890862601273e-11
1.670741374455014e-18
-9.844708537857484e-12
1.47971005689378e-18
-8.044163073471337e-12
1.239404513389693e-18
-5.487675274451946e-12
1.95530571901809e-18
-2.093713169563094e-12
7.292641649599785e-19
2.221698454445972e-12
9.842272224111372e-19
7.545611658955496e-12
-3.526277641456379e-18
1.396850768950084e-11
-2.883393585852207e-19
2.158477867463347e-11
-5.42148940578276e-20
3.049266609872942e-11
4.190698537739534e-19
4.079361783490289e-11
-3.317924141722466e-19
5.259088703107938e-11
6.462972835731676e-11
1.903762854263717e-19
-2.029870576978656e-18
6.413294599135621e-13
-4.037851599918689e-18
1.895636541067427e-12
-9.090839294226518e-19
3.072846155847663e-12
7.66670385846005e-18
4.133220372370991e-12
-3.337635417570476e-19
5.041189077324808e-12
5.784412940447874e-18
5.766110362088715e-12
-3.84349219736013e-18
6.281367644195775e-12
1.256213395441968e-19
6.565049875869745e-12
1.464256198223882e-18
6.600250264619782e-12
-1.292279682449413e-19
6.375518070371089e-12
7.349134040625243e-18
5.885388987255678e-12
5.602550665698924e-18
5.130544215442363e-12
4.139071028684251e-18
4.118138210162311e-12
-1.964351193782935e-19
2.862004996581341e-12
2.895485496089746e-19
1.382673796464829e-12
7.898293895318768e-19
-2.924435671089182e-13
2.791040655954731e-18
-2.129275424395572e-12
-8.097722432338137e-19
-4.087190390029149e-12
-2.267836702452506e-18
-6.119326394228174e-12
5.487498994787644e-19
-8.172952380475291e-12
-1.006078567598338e-18
-1.018999242947693e-11
5.194106242758704e-18
-1.210751881155226e-11
-8.024392621722527e-18
-1.385850193371736e-11
2.841886420244327e-18
-1.537233856589105e-11
6.277474547467452e-19
-1.657564736710211e-11
-2.282364054117387e-18
-1.739271479711075e-11
1.359235620978393e-18
-1.774607686411888e-11
-1.100706313054441e-18
-1.755686224014061e-11
3.654149339884388e-18
-1.674490683129707e-11
1.607427122598671e-18
-1.522853162926072e-11
5.911555079290782e-19
-1.292420107754459e-11
-5.67219623529383e-19
-9.745904593609054e-12
-2.476041896500182e-18
-5.603997447805236e-12
1.232754958579288e-18
-4.041189918737158e-13
-1.090247415280615e-19
5.953987525917391e-12
-8.830639738145333e-20
1.357758902244128e-11
4.078120542365001e-19
2.258193950489271e-11
-2.714486170892328e-19
3.309022416757262e-11
-7.307979582189454e-19
4.523304708160458e-11
5.773851495292683e-11
8.76351693818943e-19
2.531920482351456e-18
6.334494758300455e-13
-1.213564236895486e-17
1.869739061451362e-12
-5.78506018350493e-18
3.022157171916154e-12
3.764246036193341e-18
4.046628902644367e-12
-1.51547906117492e-18
4.903693025541339e-12
1.105284944299071e-17
5.559163948406617e-12
2.021283387060765e-18
5.983328231998134e-12
-1.22733700452964e-17
6.151472807387731e-12
2.608441696038139e-19
6.044425186237362e-12
5.125701506595854e-18
5.649074174041132e-12
-3.547811239288112e-18
4.958680184296839e-12
-8.073064681553566e-18
3.973193836733226e-12
-6.231184151268372e-18
2.699783807798694e-12
3.716183935456548e-18
1.152765245108301e-12
3.336097705229035e-18
-6.461420924724231e-13
1.925449324084029e-18
-2.667832821664683e-12
9.328785602627992e-19
-4.875803950375587e-12
2.489464113020838e-18
-7.226618388951214e-12
-2.193066956118622e-18
-9.669934279058561e-12
-5.607526754609045e-19
-1.214926175417747e-11
-1.950043520183082e-18
-1.460236449360363e-11
4.058518295075767e-18
-1.696200108063508e-11
1.501472084216461e-18
-1.915669938778329e-11
3.087447821990021e-18
-2.111162204261949e-11
-2.030861984448285e-18
-2.274921934090132e-11
7.389097489985838e-19
-2.399006029822192e-11
-4.586638787033362e-18
-2.475340825748288e-11
-6.728552200045395e-19
-2.495755252433446e-11
1.752406100093073e-18
-2.451991976598043e-11
-5.8018583122048e-19
-2.335681922566045e-11
1.818699345553799e-18
-2.138267406998692e-11
-5.926738277900734e-19
-1.850906883201593e-11
-4.056668468182701e-19
-1.464300594840804e-11
9.424921110477746e-19
-9.685094690124759e-12
-9.781643276841988e-19
-3.52733414147734e-12
6.824798244750164e-19
3.948987452809674e-12
6.855555577284674e-19
1.287535997566696e-11
-2.03625493837385e-19
2.339731790930542e-11
5.853244742160019e-20
3.567482679231382e-11
4.844723158060271e-11
-1.148498438715323e-19
4.055483497281939e-18
6.215286664815581e-13
2.411470845370852e-20
1.83164670061032e-12
-1.536449787795056e-17
2.950805599758216e-12
4.344805058958587e-18
3.930328695153801e-12
-6.193157138549479e-19
4.726600765306506e-12
5.486158222593418e-18
5.301615095719326e-12
8.189622115979507e-19
5.622286262159578e-12
-9.329906610537708e-18
5.660986702696156e-12
1.623570244829754e-18
5.396111696586747e-12
-9.644318869507119e-18
4.812582491381177e-12
3.144033063867121e-18
3.902329850144566e-12
-8.179004651566847e-19
2.664594183015241e-12
-1.004508004959518e-17
1.106305744175026e-12
4.197217214761915e-18
-7.576376793011492e-13
-4.645496292929924e-19