/*--------------------------------*- C++ -*----------------------------------*\
| =========                 |                                                 |
| \\      /  F ield         | OpenFOAM: The Open Source CFD Toolbox           |
|  \\    /   O peration     | Version:  2206                                  |
|   \\  /    A nd           | Website:  www.openfoam.com                      |
|    \\/     M anipulation  |                                                 |
\*---------------------------------------------------------------------------*/
FoamFile
{
    version     2.0;
    format      ascii;
    arch        "LSB;label=32;scalar=64";
    class       surfaceScalarField;
    location    "3";
    object      meshPhi;
}
// * * * * * * * * * * * * * * * * * * * * * * * * * * * * * * * * * * * * * //

dimensions      [0 3 -1 0 0 0 0];

oriented        oriented;

internalField   nonuniform List<scalar> 
35915
(
0
7.521924558911995e-14
1.452145823656598e-18
2.243232228400074e-13
0
3.697663626635134e-13
1.452154410526333e-18
5.095548809286324e-13
0
6.419128140491821e-13
-1.452162785982116e-18
7.654039985191558e-13
-1.452166897337055e-18
8.78866724716881e-13
1.452170959800288e-18
9.814122847728841e-13
0
1.072432233295565e-12
0
1.15165792492766e-12
-2.302513446179753e-27
1.219141636598069e-12
0
1.275319009421155e-12
0
1.320987266621717e-12
0
1.357351681920142e-12
0
1.386011058181199e-12
2.614377677132758e-27
1.408956275261723e-12
0
1.42860368916586e-12
0
1.447754472206823e-12
-7.261060316063443e-19
1.469596065152568e-12
7.261077111111529e-19
1.49768620369943e-12
-1.435046512749387e-27
1.535932588579703e-12
7.261109485041723e-19
1.58854496501597e-12
7.261125024858348e-19
1.660026409911082e-12
1.452228019616523e-18
1.755092012174775e-12
0
1.878668872724865e-12
0
2.035798811297882e-12
0
2.231567211748165e-12
7.261194975645442e-19
2.471071075019102e-12
7.261207145317341e-19
2.759298491777919e-12
0
3.101050227022336e-12
1.711160669109704e-27
3.500839522615193e-12
3.630619751922194e-19
3.962771569914807e-12
0
4.490420078134366e-12
0
5.086679156357522e-12
0
5.753639881895074e-12
3.630635797357841e-19
6.492365219046619e-12
1.815319356441045e-19
7.302778204550112e-12
-1.815320564493281e-19
8.183451387713566e-12
9.076607781776238e-20
9.131471781671786e-12
1.004080288895953e-11
0
-1.452141395081706e-18
1.489645720923713e-13
-2.904291423733835e-18
4.440547884260199e-13
1.452149972112499e-18
7.31519833258284e-13
0
1.007453457992229e-12
0
1.268366177364918e-12
0
1.511445201982103e-12
0
1.734370016866382e-12
-1.452170461241793e-18
1.935345780675327e-12
0
2.113180288905832e-12
0
2.267314468812337e-12
-1.452182119681959e-18
2.397870299881184e-12
-1.452185897732083e-18
2.505688569479075e-12
0
2.592375341128876e-12
0
2.660312119553984e-12
0
2.712661659187703e-12
1.452200439676512e-18
2.753414432565835e-12
0
2.787346518359873e-12
-7.261036688905671e-19
2.820026862030551e-12
-7.261053402277595e-19
2.857789685277446e-12
7.261069769536718e-19
2.907702538985385e-12
7.261085716631152e-19
2.977511122034817e-12
-1.394220810282428e-27
3.075581195798039e-12
-7.261116357021491e-19
3.210834690136869e-12
0
3.392664027317139e-12
7.261145125573393e-19
3.630811594611354e-12
0
3.935291328915904e-12
-2.014586919493861e-27
4.316236242382389e-12
0
4.783745947980786e-12
-1.452239193724805e-18
5.347766132181299e-12
-1.425150041483072e-27
6.017864925824717e-12
3.630608792200416e-19
6.803064456216751e-12
-1.836480529355576e-27
7.711596888143593e-12
0
8.750680794734904e-12
-3.630622190721986e-19
9.926222017259125e-12
0
1.124253340267008e-11
1.815314570673902e-19
1.270199500354935e-11
0
1.4304696852388e-11
0
1.604805559742711e-11
9.076590650361156e-20
1.792645001625467e-11
1.972945528946196e-11
0
2.621030160148996e-28
2.201105733574331e-13
0
6.558518773338211e-13
-1.452149803896529e-18
1.079724865418738e-12
0
1.485934058784171e-12
0
1.869318562454329e-12
0
2.225681700411352e-12
1.452166049896286e-18
2.551533987392434e-12
0
2.84418025710969e-12
0
3.101803886124814e-12
0
3.323542305082297e-12
1.452181413694028e-18
3.509566866103822e-12
-1.45218511697769e-18
3.661117694240858e-12
-2.21406511348377e-27
3.780571937797563e-12
1.452192351755803e-18
3.871467002536389e-12
0
3.938533950885438e-12
1.4521993486805e-18
3.987696049756475e-12
0
4.026087648326766e-12
-1.145442822070258e-27
4.062009161844018e-12
0
4.104909645877288e-12
7.261062681995276e-19
4.165324354534675e-12
7.261078219564941e-19
4.254806489946417e-12
-1.452218671692724e-18
4.385842978381854e-12
7.261108044261276e-19
4.571738299219778e-12
-7.261122269269803e-19
4.826504122583398e-12
-7.261136014440105e-19
5.164699574265821e-12
0
5.6012802134367e-12
-7.261161878485583e-19
6.151396185652666e-12
0
6.830191827924676e-12
0
7.652586395991148e-12
-1.28200128601244e-27
8.632998158352698e-12
3.630603175400872e-19
9.785058325238742e-12
3.630607871004852e-19
1.112130609982483e-11
0
1.265281402689773e-11
0
1.438878865517996e-11
-2.499233146759733e-27
1.633615377399226e-11
0
1.849903345247512e-11
1.815312806524802e-19
2.087822781812786e-11
0
2.347063365413376e-11
1.015337226530286e-27
2.626859965052658e-11
2.895856440806449e-11
0
2.483165674963275e-28
2.875115132257693e-13
0
8.563353666621868e-13
1.452149636208305e-18
1.408861886355304e-12
0
1.937355538321478e-12
0
2.434968044366825e-12
1.452161720540048e-18
2.896063660775725e-12
1.489530268405292e-27
3.315951984869662e-12
-1.452169489341075e-18
3.690998317748541e-12
0
4.018739835022854e-12
1.452177036549562e-18
4.297984332166232e-12
-1.452180724780766e-18
4.528908969880877e-12
-2.90436871190495e-18
4.713109646829738e-12
0
4.853712813959731e-12
-1.452191441145583e-18
4.955392900373544e-12
0
5.024405712317202e-12
0
5.068602954682848e-12
0
5.097438039551582e-12
-7.261024346882141e-19
5.121928330423244e-12
-7.261040278966278e-19
5.154611578378165e-12
0
5.209461697963187e-12
-9.680646741921928e-28
5.301833586040328e-12
7.261085751508579e-19
5.448307743161667e-12
0
5.666566841797101e-12
-7.261113938955217e-19
5.975240347829098e-12
0
6.393704125509634e-12
0
6.941875686257613e-12
-1.452230495896252e-18
7.639973133825457e-12
0
8.50825813605646e-12
7.261175378532992e-19
9.566735332568189e-12
0
1.083481543893542e-11
1.258416668901797e-27
1.233096818594392e-11
-1.459521872459307e-27
1.407230991266188e-11
-3.630606666865483e-19
1.607413162192651e-11
-3.630610517225533e-19
1.83494096101693e-11
0
2.0908228968998e-11
1.294043363607424e-27
2.375714754920822e-11
-3.630619741128881e-19
2.689847134439151e-11
-1.815310977748062e-19
3.032950373609705e-11
0
3.404166840307411e-11
3.761926788865832e-11
0
2.311356674507731e-28
3.502525453696883e-13
0
1.04278685595413e-12
1.452149471099045e-18
1.714429271292002e-12
0
2.355440308229967e-12
0
2.957189916552577e-12
0
3.512556816222914e-12
0
4.015579984847906e-12
1.479154320829904e-27
4.461632913815839e-12
0
4.847542683773736e-12
0
5.171732273857853e-12
-1.452180045733048e-18
5.434341089280442e-12
2.904367210762159e-18
5.6372990201054e-12
0
5.784429543166644e-12
0
5.881507807344052e-12
0
5.936288224369805e-12
-1.452197250307362e-18
5.958521894309393e-12
0
5.959965318491618e-12
0
5.954323766162175e-12
7.261034014688387e-19
5.957207710287351e-12
-7.261049216946388e-19
5.98605441222422e-12
7.261064030971217e-19
6.059973995178882e-12
-7.261078436796439e-19
6.199668124525685e-12
-1.452218483267105e-18
6.427193309517928e-12
0
6.765822950151135e-12
-7.261118981151757e-19
7.23978450054014e-12
0
7.874021318299288e-12
1.452228706962575e-18
8.693902237184861e-12
-7.261154988609312e-19
9.72490935766124e-12
0
1.099229534253649e-11
-3.630588063209387e-19
1.252070876561218e-11
1.002057337710628e-27
1.433373233213516e-11
-1.191017145556347e-27
1.645343852482715e-11
0
1.889982907902349e-11
0
2.169024396290525e-11
-3.630608593643579e-19
2.483867161239507e-11
-1.815305796038893e-19
2.835496913361114e-11
-1.321607232847954e-27
3.224400408983268e-11
1.522140675953223e-27
3.650469754326589e-11
-9.076545520843229e-20
4.112894221291278e-11
4.559956240275664e-11
0
2.110337736562314e-28
4.075349944920331e-13
-1.452145276408869e-18
1.212816127684477e-12
-1.452149308072895e-18
1.992475755392682e-12
0
2.73464120509938e-12
1.452157182812997e-18
3.428801909240156e-12
-1.452161029195733e-18
4.066255210495597e-12
-1.452164815892914e-18
4.639701216130413e-12
0
5.143430123304136e-12
0
5.573486310817587e-12
0
5.927846951844771e-12
-1.45217937736864e-18
6.206551254038691e-12
0
6.411803561354163e-12
0
6.548089525140204e-12
0
6.6222414499967e-12
0
6.64346733684344e-12
0
6.623406063908737e-12
0
6.576091083288525e-12
7.261012712394918e-19
6.51790976140562e-12
7.261027951810527e-19
6.467535128111547e-12
7.261042816386041e-19
6.445843105280793e-12
-3.646266867211134e-28
6.475751319362077e-12
7.261071390069463e-19
6.582049201508958e-12
7.261085048712188e-19
6.791229539499341e-12
0
7.131231449623856e-12
-7.261111016942651e-19
7.631181896282538e-12
0
8.321125594470959e-12
0
9.231693922501232e-12
-7.261146218891322e-19
1.039373317499731e-11
-7.261156837122892e-19
1.183795314569497e-11
0
1.359447986924721e-11
-3.630588132126042e-19
1.569237786815023e-11
-8.728575310976236e-28
1.815911721842895e-11
0
2.101998398205527e-11
0
2.429739625037008e-11
0
2.801012579864211e-11
9.581732183684429e-28
3.217238904833408e-11
-1.136643729636837e-27
3.679289446514937e-11
1.335814978541861e-27
4.187364164177225e-11
7.780320631821408e-28
4.740865503435887e-11
5.278004162733579e-11
9.076534842951817e-20
-1.452141129351442e-18
4.586807124791183e-13
1.452145169933182e-18
1.364407615708778e-12
0
2.239632380766904e-12
0
3.070212645200064e-12
-1.452156903825834e-18
3.843648413582687e-12
9.478865456706867e-28
4.549533671960234e-12
0
5.179112034174928e-12
0
5.725487301400175e-12
0
6.183847091734677e-12
0
6.551645808684764e-12
0
6.828735334488155e-12
0
7.017534929395118e-12
1.452185513805444e-18
7.1231401421387e-12
0
7.153385252027544e-12
0
7.118926040501611e-12
1.452195254180337e-18
7.033228174187439e-12
0
6.912587534694816e-12
7.261007130361178e-19
6.776073585394729e-12
0
6.645426269685786e-12
7.261036607838705e-19
6.544957265562647e-12
7.261050789315116e-19
6.501385894235989e-12
0
6.543645985842386e-12
0
6.702668058945743e-12
0
7.011107770921209e-12
7.26110337576805e-19
7.503059846871969e-12
0
8.213751678809448e-12
-7.261126880625621e-19
9.179167222150845e-12
9.19350683661358e-29
1.043569848280513e-11
0
1.201969535465087e-11
0
1.396704449995593e-11
3.630583661223258e-19
1.63126567448435e-11
-5.077012136418066e-28
1.908990365020688e-11
0
2.232996985859473e-11
0
2.606115752056266e-11
-3.630598805598337e-19
3.030800049107665e-11
7.48360203432169e-28
3.50903233447761e-11
3.630604218669931e-19
4.042209418766293e-11
1.815303182404605e-19
4.631012499450778e-11
-9.076520201731152e-20
5.275257009915786e-11
5.903196054618548e-11
0
-1.452141077106459e-18
5.031524087997792e-13
-1.452145064042648e-18
1.495933474249019e-12
1.452148982678517e-18
2.453179294740011e-12
1.452152835701507e-18
3.358332603816704e-12
0
4.196745695406169e-12
1.452160350491954e-18
4.956171245771152e-12
-1.452164013212843e-18
5.62627003941274e-12
0
6.198857832044499e-12
0
6.668150761908846e-12
0
7.030962840439418e-12
0
7.286903442599198e-12
-1.452181429377285e-18
7.438522521205341e-12
0
7.491461628469903e-12
1.452187979805562e-18
7.454516358390714e-12
0
7.339723474657205e-12
1.452194285112406e-18
7.16238559728829e-12
0
6.941031994679722e-12
7.261001677302313e-19
6.697386636584765e-12
-7.261016296666261e-19
6.456266544822844e-12
-7.261030567344966e-19
6.245433674898075e-12
-7.261044463395108e-19
6.095419207754583e-12
0
6.039331867414846e-12
7.26107109533004e-19
6.112561685284165e-12
0
6.352524423852704e-12
7.261096022824674e-19
6.798327585263528e-12
0
7.490449488975997e-12
7.261119094435878e-19
8.470338481993054e-12
0
9.780031026869475e-12
-4.579660790050297e-28
1.146173203397438e-11
3.630574880055093e-19
1.35573429170616e-11
-3.630579415293567e-19
1.610797803162922e-11
-9.861363168370269e-29
1.915337365515632e-11
3.630587544169602e-19
2.273128099378206e-11
0
2.687669945402456e-11
0
3.162101407331444e-11
0
3.69909674070534e-11
-6.799034247943274e-28
4.300743682919765e-11
-3.63060181700264e-19
4.96839852995321e-11
5.468933864658295e-28
5.70251797889922e-11
6.421597209069901e-11
0
-1.452141025080214e-18
5.405434849725672e-13
-1.452144957315756e-18
1.606188429865879e-12
0
2.631115452594861e-12
0
3.596163605269775e-12
0
4.484371927439268e-12
0
5.281503667742288e-12
-1.452163613784755e-18
5.975494471802107e-12
0
6.556731192500738e-12
1.452170636112709e-18
7.018326344012903e-12
0
7.356370773474436e-12
-4.747818548319636e-28
7.570118082389522e-12
1.452180719577778e-18
7.662177761019721e-12
1.452183963069491e-18
7.638660401921041e-12
0
7.50926773263052e-12
-1.452190270010318e-18
7.287394264941777e-12
1.452193332065556e-18
6.990118582429221e-12
0
6.638207696550697e-12
0
6.256038631565804e-12
-7.261010668454859e-19
5.871486609757007e-12
-7.386342572130135e-28
5.515791454843589e-12
-7.261038302536043e-19
5.223317989418165e-12
9.889449646725921e-28
5.031344022994044e-12
-1.097739944760217e-27
4.979752498898692e-12
0
5.110746875355844e-12
-1.259971456096486e-27
5.468480830661539e-12
0
6.09870975025657e-12
0
7.048407362451883e-12
-7.261122207322185e-19
8.3653533317421e-12
7.261132282996619e-19
1.009772375593771e-11
3.630570904021634e-19
1.229364100380213e-11
3.63057537830942e-19
1.500071483973458e-11
3.630579554934903e-19
1.826549642023184e-11
0
2.213288291773684e-11
0
2.664540161706475e-11
0
3.184237929304862e-11
2.453855428622123e-28
3.775887198551464e-11
1.815297728772695e-19
4.44244190657764e-11
0
5.1861490902097e-11
0
6.008365626281042e-11
6.818158549276588e-11
0
1.452140972621935e-18
5.706128863236169e-13
-2.143479781021975e-28
1.694440605146521e-12
-1.452148657195088e-18
2.772202181393705e-12
1.452152395067802e-18
3.781938398775037e-12
0
4.704197881927319e-12
-1.452159671235064e-18
5.522571482623155e-12
1.452163213879084e-18
6.22310125965307e-12
-1.452166693539915e-18
6.794605758066159e-12
0
7.228971888283166e-12
1.452173472177361e-18
7.521430832324576e-12
0
7.670784577183549e-12
2.904360027664081e-18
7.679603405280603e-12
1.452183196730146e-18
7.554398699129142e-12
0
7.305727494841287e-12
0
6.9482839669399e-12
2.904384779652283e-18
6.500911045419242e-12
-1.452195333760477e-18
5.986581537963095e-12
7.260991071720774e-19
5.432328427368296e-12
0
4.869105466405681e-12
7.261018883767955e-19
4.331617277726495e-12
7.261032292083602e-19
3.858081203469978e-12
0
3.489958659896403e-12
0
3.271638571528168e-12
7.261070237514583e-19
3.250100475221283e-12
-1.892811974051877e-27
3.474547129699025e-12
0
3.996012438479969e-12
0
4.866970824968233e-12
0
6.140964033280943e-12
0
7.872180008533968e-12
-3.630567104168835e-19
1.011506953266238e-11
0
1.292391929603315e-11
3.630575669492253e-19
1.635241044794616e-11
-3.630579486919162e-19
2.045308566226842e-11
0
2.527675376125628e-11
3.448417688965873e-28
3.087169830086331e-11
-4.686028295937193e-29
3.728270463899259e-11
-3.630591482605589e-19
4.454979657623212e-11
1.815296800097321e-19
5.270667240431347e-11
9.076488360533202e-20
6.177873871256178e-11
7.076756417031423e-11
-9.076490816535491e-20
1.45214091934333e-18
5.932734845517699e-13
0
1.760444589146797e-12
-1.452148491844798e-18
2.876014004944638e-12
1.452152171263251e-18
3.915034017462638e-12
0
4.855352276700281e-12
-1.452159328584345e-18
5.678197007288941e-12
-1.452162810221477e-18
6.367546781300889e-12
0
6.910477579578893e-12
0
7.297506947161213e-12
0
7.522881517209295e-12
0
7.584839847594266e-12
-1.452179307503396e-18
7.485818623964878e-12
-1.452182431158027e-18
7.232648699222171e-12
1.452185497028524e-18
6.836685784682183e-12
0
6.313878701293115e-12
0
5.684808587100157e-12
0
4.974658402191204e-12
7.260985871207136e-19
4.213095306151203e-12
0
3.434169007672518e-12
0
2.676059093401248e-12
1.830841165737167e-27
1.980844137832481e-12
-7.261039181469722e-19
1.39417787679147e-12
-7.261051635423767e-19
9.649406945352855e-13
0
7.448635203277823e-13
-2.553101006068837e-27
7.881328471792684e-13
0
1.150989941897662e-12
0
1.891346028924657e-12
0
3.068384404718294e-12
0
4.742220637704578e-12
1.443697148082926e-27
6.973575837458758e-12
3.630567845028344e-19
9.823445567408442e-12
0
1.335277601839452e-11
-3.630575764638168e-19
1.762207628795456e-11
0
2.269099871280573e-11
0
2.861768685930713e-11
-3.64786177794633e-28
3.545796232670707e-11
0
4.326417465464062e-11
-1.815294932774298e-19
5.208365624932585e-11
1.815295812059389e-19
6.195670681739917e-11
7.180337205578451e-11
0
1.452140865048412e-18
6.08622572875407e-13
1.452144631327124e-18
1.804471931696706e-12
0
2.943014154898295e-12
0
3.996058906864675e-12
0
4.938540850175149e-12
0
5.749126640031151e-12
1.452162402126479e-18
6.409530966960259e-12
0
6.90493332042989e-12
1.452169057711117e-18
7.224322145495828e-12
0
7.360818669172024e-12
0
7.311964423349661e-12
8.802382563740864e-28
7.079976821346158e-12
0
6.671932126784561e-12
0
6.099916476058618e-12
1.452187627176472e-18
5.381107198160886e-12
-1.452190523156628e-18
4.537787335685801e-12
-1.452193361403423e-18
3.597336931983322e-12
7.260980703927064e-19
2.592095078665049e-12
0
1.5592016322343e-12
-2.088257752220724e-27
5.403445422183961e-13
2.331522765967086e-27
-4.185407409366807e-13
-7.261033144268802e-19
-1.267616874644808e-12
1.452209086193742e-18
-1.953533796864272e-12
0
-2.419877436437505e-12
-7.261068873424345e-19
-2.607571955076732e-12
0
-2.455316840498478e-12
-7.261090637647337e-19
-1.899990600615076e-12
0
-8.769803987174205e-13
0
6.795013808569294e-13
3.630559958852203e-19
2.836171721422669e-12
3.630564302375906e-19
5.66051869110157e-12
1.888897922675315e-27
9.220627186258535e-12
-3.630572181775642e-19
1.35850395264689e-11
0
1.882252746894968e-11
3.630578860882754e-19
2.500175821703446e-11
-7.062515507574636e-28
3.219071211327252e-11
5.870595582356867e-28
4.045575327168984e-11
0
4.986025295191514e-11
0
6.046263062633203e-11
7.111200961973374e-11
0
3.062228611575705e-29
6.169331530546136e-13
-1.452144518289609e-18
1.827354706735103e-12
1.452148151556569e-18
2.974557475384275e-12
-1.452151712321833e-18
4.026868898156647e-12
0
4.956085569718371e-12
-1.452158627374101e-18
5.738083137980817e-12
0
6.352138155356425e-12
0
6.781325964954628e-12
0
7.01293891574286e-12
0
7.038837779478596e-12
-1.452174817415505e-18
6.855755248051675e-12
0
6.465577647406224e-12
1.645458371527745e-27
5.875546784825796e-12
0
5.098418232127727e-12
0
4.152562974382702e-12
1.452189585053887e-18
3.0619717676303e-12
1.452192372954161e-18
1.856230451464933e-12
0
5.703573101459089e-13
0
-7.55384253064983e-13
-2.549943283430853e-27
-2.075781952055879e-12
2.833367948871739e-27
-3.341005704887116e-12
0
-4.497044727209867e-12
0
-5.486144625393972e-12
0
-6.247288053887192e-12
-7.261062455373186e-19
-6.716684085496075e-12
0
-6.828215469450213e-12
0
-6.513855394815805e-12
0
-5.703979700054284e-12
-7.261103896190273e-19
-4.32761954447671e-12
0
-2.312558701998698e-12
3.630560877441783e-19
4.146417530506709e-13
-3.63056495609535e-19
3.928745095221894e-12
-3.630568751223762e-19
8.305959475410627e-12
-3.630572272815755e-19
1.362409329953157e-11
3.630575459251962e-19
1.99626046011201e-11
-1.06798332403092e-27
2.740239338581281e-11
-1.815290414537984e-19
3.602528321836053e-11
0
4.591294809341838e-11
9.076462091076162e-20
5.714514808904136e-11
6.851434269129699e-11
0
6.443840605595393e-30
6.186858823293137e-13
1.452144401710421e-18
1.830498583439706e-12
-1.452147974600634e-18
2.972952863978825e-12
0
4.010651431796142e-12
0
4.91200885469749e-12
0
5.649889048049832e-12
0
6.200892276094352e-12
1.452164796226409e-18
6.545827095587702e-12
0
6.67010533837028e-12
0
6.564192272552601e-12
-1.452174148224994e-18
6.22386508372654e-12
0
5.650583169598807e-12
0
4.851681274313246e-12
-1.452183005935224e-18
3.840543744658433e-12
0
2.636711988721943e-12
-3.576363634937979e-27
1.265890283742857e-12
0
-2.401166651364148e-13
7.260970354557562e-19
-1.843567816635363e-12
0
-3.501019587647119e-12
0
-5.163680174092721e-12
0
-6.77780888911581e-12
0
-8.285211341649282e-12
0
-9.623779631211997e-12
0
-1.072803109090915e-11
-4.582850611520697e-27
-1.152966881237299e-11
0
-1.195809715434262e-11
7.261077471253929e-19
-1.194084431437037e-11
0
-1.14038759907298e-11
1.452219449075131e-18
-1.027175076091187e-11
2.878942272357828e-27
-8.467628794320273e-12
3.630557545710852e-19
-5.913030797811971e-12
3.630561658433779e-19
-2.527464816250974e-12
0
1.772113962343614e-12
3.630568951106883e-19
7.071889870230443e-12
3.630572192560248e-19
1.346180682239293e-11
-1.445251935277614e-27
2.103593280296663e-11
3.630577634255164e-19
2.989252666351682e-11
0
4.01334790503149e-11
-9.07645433678051e-20
5.186301128955878e-11
6.383539311576764e-11
0
-1.452140692333695e-18
6.145298662910344e-13
3.85667471363544e-29
1.815878467845051e-12
1.452147791518146e-18
2.941483602466666e-12
1.452151227778113e-18
3.951961862041075e-12
0
4.812084401900663e-12
1.45215789088212e-18
5.491468159715701e-12
1.45216112424682e-18
5.963839620065622e-12
-1.452164296620954e-18
6.207516925135756e-12
0
6.205889079481171e-12
0
5.947828357211528e-12
-1.452173464084298e-18
5.428075118031634e-12
-1.452176410938576e-18
4.647539851750082e-12
-1.452179305594936e-18
3.613577632434464e-12
0
2.340175443878165e-12
-1.452184941773452e-18
8.48032047189027e-13
1.452187684149492e-18
-8.354158807441547e-13
-1.452190380815134e-18
-2.676085231884111e-12
-7.260965084246819e-19
-4.633432340583888e-12
0
-6.660752123813231e-12
-7.260990741618588e-19
-8.705596296620936e-12
3.803153922951727e-27
-1.071024822089864e-11
0
-1.261231537751766e-11
0
-1.434536540183881e-11
0
-1.583959551936948e-11
-7.261049778962316e-19
-1.702246567748118e-11
0
-1.781931715533897e-11
-1.452214199748305e-18
-1.815384015248917e-11
7.26108105145494e-19
-1.794839906732194e-11
7.261090681635536e-19
-1.712412398180938e-11
0
-1.560075237848345e-11
7.261108598463105e-19
-1.329616736087114e-11
7.26111679339611e-19
-1.012565270727682e-11
0
-6.000856044892859e-12
0
-8.285850281938849e-13
0
5.49050829714431e-12
1.815285965114424e-19
1.306313131589632e-11
-5.445861824657645e-19
2.200423955111414e-11
-1.81528842122936e-19
3.243729804880049e-11
0
4.449366857606913e-11
5.691276260145308e-11
0
-3.385624348070752e-29
6.053407430922425e-13
1.452144155120073e-18
1.786079163955099e-12
0
2.884426234667219e-12
0
3.856717646806574e-12
0
4.663841541835854e-12
1.452157504032544e-18
5.271923919809869e-12
-1.452160672943664e-18
5.651582239811587e-12
-1.452163780369654e-18
5.778456903596228e-12
0
5.633713693760987e-12
1.4521698230467e-18
5.204504102164486e-12
1.452172762962486e-18
4.484374831713336e-12
2.904351299975789e-18
3.473623570553186e-12
2.89479307703554e-27
2.179557472124848e-12
0
6.16734210280985e-13
0
-1.192968318922124e-12
0
-3.22033166626213e-12
0
-5.428897027634834e-12
7.260959780451899e-19
-7.775209202493988e-12
0
-1.02091810808809e-11
0
-1.267455832668285e-11
4.251779241726481e-27
-1.510953363170599e-11
0
-1.744744374183082e-11
0
-1.961755215840843e-11
0
-2.154583474463929e-11
-5.843608489011141e-27
-2.31558147041919e-11
0
-2.436925960727814e-11
7.261064602915715e-19
-2.510675353223605e-11
0
-2.528808188215909e-11
7.261084191771384e-19
-2.483228511375859e-11
3.630546731160879e-19
-2.365733781529292e-11
3.63055106022791e-19
-2.167945168055769e-11
4.066990275916576e-27
-1.881187894815781e-11
3.630559040641248e-19
-1.496329907723447e-11
0
-1.003584529316731e-11
3.630565955316455e-19
-3.922843610370875e-12
-2.218228933899994e-27
3.493451049448039e-12
1.815285798527984e-19
1.234390382253564e-11
1.815286961203506e-19
2.277397672650199e-11
0
3.494418027490815e-11
4.760764717899561e-11
0
-4.849331105804981e-29
5.921771209866246e-13
1.452144023250294e-18
1.744292469077342e-12
1.796009920222109e-28
2.807047661326771e-12
1.452150704912432e-18
3.732246269915558e-12
0
4.476605898583628e-12
0
5.002527816010005e-12
0
5.277293922516234e-12
1.452163243872755e-18
5.273656319216505e-12
0
4.970381858815995e-12
0
4.352737158672163e-12
0
3.412966355018099e-12
-1.452174865471462e-18
2.150648328348709e-12
0
5.730147208602525e-13
-2.904360755444214e-18
-1.304823529378249e-12
0
-3.4597643748177e-12
-1.452185711632145e-18
-5.860707396644648e-12
-1.45218831083103e-18
-8.46870482785337e-12
0
-1.123721422476021e-11
0
-1.411255153380837e-11
-4.228820551847766e-27
-1.703446178141776e-11
4.663310347301524e-27
-1.99368451424487e-11
0
-2.274861660553138e-11
5.540001682694699e-27
-2.539465857461792e-11
0
-2.77968242957949e-11
7.261036955018313e-19
-2.987494999702479e-11
-7.261047661094072e-19
-3.154773633490324e-11
7.261058109140481e-19
-3.273353400121281e-11
0
-3.335076919871539e-11
0
-3.331803657812689e-11
3.630543503499058e-19
-3.255369699604879e-11
0
-3.097486537558075e-11
3.630552099173607e-19
-2.849578576488013e-11
0
-2.502551517871698e-11
-3.630559537087849e-19
-2.0465004802947e-11
3.630562928609093e-19
-1.470368747261834e-11
-2.594136354034951e-27
-7.615800860951367e-12
2.656003844232853e-27
9.432326981972941e-13
0
1.113991523575552e-11
0
2.31647438947798e-11
3.581876609967628e-11
9.076435849523488e-20
-5.841987497974662e-29
5.763205109885545e-13
1.257271141820292e-28
1.694306282513248e-12
-1.452147192733053e-18
2.715622566575031e-12
1.452150425514473e-18
3.587244579749946e-12
0
4.261473977081726e-12
-1.452156681954079e-18
4.69672228047402e-12
0
4.856708572635582e-12
1.452162686019655e-18
4.711088272095477e-12
0
4.236044153557036e-12
0
3.414814199378243e-12
1.452171284122854e-18
2.238211464691145e-12
0
7.050205108084778e-13
3.52141444621218e-27
-1.177644643000211e-12
0
-3.394091478066683e-12
-1.452182081054597e-18
-5.919923366185644e-12
-5.653579388810883e-27
-8.722035939844082e-12
-1.452187232114391e-18
-1.175878336133818e-11
0
-1.498030577998466e-11
-7.260961030328573e-19
-1.832903249740851e-11
7.260973168790475e-19
-2.174038843246948e-11
5.028374380614177e-27
-2.514367266394465e-11
7.260996845856416e-19
-2.846310542118178e-11
-7.261008255141301e-19
-3.161901375456694e-11
-7.261019470864408e-19
-3.452908400294691e-11
7.261030421525988e-19
-3.710964548335819e-11
7.261041161147337e-19
-3.927686342115099e-11
-7.26105144703937e-19
-4.094771769080561e-11
0
-4.204067152447286e-11
-8.648502767361325e-27
-4.247585375573422e-11
0
-4.217459703951022e-11
0
-4.105821515320921e-11
4.966700486499225e-27
-3.904587997190661e-11
0
-3.60515516510153e-11
0
-3.197995620661564e-11
-3.630559868037333e-19
-2.672171940429877e-11
1.81528148487577e-19
-2.014793141031854e-11
3.063363104683571e-27
-1.210446022295475e-11
-3.174971748049323e-27
-2.406618699380423e-12
0
9.165153373822536e-12
2.149970470787014e-11
0
1.452140423307779e-18
5.592324884423633e-13
2.904287476837633e-18
1.640510414332399e-12
2.904293945195808e-18
2.617410183455814e-12
-1.452150131334937e-18
3.431804202532623e-12
0
4.031305176656332e-12
-1.45215624128198e-18
4.37008874382834e-12
0
4.408083909069419e-12
0
4.111638122767509e-12
0
3.454159851917268e-12
-1.452167749944865e-18
2.416712503814499e-12
0
9.885560729142545e-13
-1.452173201015453e-18
-8.323903532593526e-13
0
-3.039144899777865e-12
0
-5.615400067767604e-12
1.452181062096482e-18
-8.535349204329115e-12
-1.452183610129263e-18
-1.176370465376259e-11
0
-1.525586620542099e-11
0
-1.895831462358713e-11
0
-2.280919467962176e-11
7.260966994706711e-19
-2.673917046096958e-11
7.260978818189272e-19
-3.067247163609719e-11
-7.26099033441585e-19
-3.452817786946811e-11
0
-3.82216905624451e-11
0
-4.166632512163413e-11
7.261023723932578e-19
-4.477494388683766e-11
-7.261034437899677e-19
-4.746154549501091e-11
0
-4.964262262858253e-11
-7.26105476154681e-19
-5.123814511202838e-11
7.261064471744339e-19
-5.217197594905786e-11
-3.630536954646912e-19
-5.237148795873012e-11
-5.050540630567859e-27
-5.176618787542873e-11
3.630545729619701e-19
-5.028514897054479e-11
3.630549687813833e-19
-4.785311932543265e-11
-3.630553381272985e-19
-4.438525347814905e-11
6.170337488633871e-27
-3.978053932538954e-11
1.815280012435041e-19
-3.391413882555123e-11
-1.815281441986239e-19
-2.662908613155699e-11
0
-1.77279944362451e-11
-9.076419200833444e-20
-6.965627565459068e-12
4.67989709493702e-12
9.07642250332001e-20
-6.134086872873346e-29
5.425837375662688e-13
-1.452143583600189e-18
1.587871173436288e-12
0
2.52062742916552e-12
1.45214982062478e-18
3.277337483330014e-12
0
3.800665157767382e-12
-1.452155777784441e-18
4.040298261160616e-12
0
3.952137570434945e-12
0
3.499015638584311e-12
0
2.651388011554706e-12
0
1.387984512327045e-12
0
-3.036113563684154e-13
0
-2.426400435955039e-12
-1.452174915077985e-18
-4.973548243409883e-12
0
-7.928057515083791e-12
0
-1.126257434564659e-11
0
-1.493937947620599e-11
1.452184947177262e-18
-1.891059159250102e-11
0
-2.311858554136566e-11
0
-2.749669661614164e-11
-7.260960641234651e-19
-3.197020873689157e-11
5.585168752244632e-27
-3.645760691785642e-11
0
-4.087216154942745e-11
7.260994971644792e-19
-4.512373049988378e-11
0
-4.912077177741879e-11
-7.261016887079325e-19
-5.277246074598962e-11
0
-5.599078918927783e-11
0
-5.869246688398721e-11
0
-6.080041076680154e-11
0
-6.224456393921775e-11
0
-6.296177659246067e-11
3.630538045370423e-19
-6.289443954664408e-11
3.630542408936126e-19
-6.198756109876753e-11
0
-6.018408242889946e-11
0
-5.741824786837868e-11
0
-5.360703511334708e-11
1.815278525391013e-19
-4.863985884712594e-11
3.746836521494605e-27
-4.236694565729061e-11
0
-3.458718763555204e-11
-2.15242682901102e-27
-2.503655505041604e-11
-1.451025265636341e-11
0
1.452140264108897e-18
5.282235543987224e-13
-1.45214341924018e-18
1.541922653794385e-12
0
2.434420588726111e-12
1.452149492446799e-18
3.136551346784404e-12
0
3.585764852057074e-12
-1.452155289081299e-18
3.72701349401901e-12
0
3.511941110145847e-12
0
2.899655521754446e-12
-1.452163551096249e-18
1.857460411592883e-12
0
3.615901052362784e-13
-1.45216881686205e-18
-1.60214350215446e-12
0
-4.037741048003766e-12
-1.452173923948249e-18
-6.938511810918062e-12
1.452176424093043e-18
-1.028668235988801e-11
0
-1.405316493816724e-11
-1.452181334361447e-18
-1.819751825589764e-11
0
-2.266814861063862e-11
0
-2.740277674998654e-11
0
-3.232923364195232e-11
-7.2609539679218e-19
-3.736659895114959e-11
0
-4.242671053465411e-11
-7.260976689108887e-19
-4.741605004219722e-11