/*--------------------------------*- C++ -*----------------------------------*\
| =========                 |                                                 |
| \\      /  F ield         | OpenFOAM: The Open Source CFD Toolbox           |
|  \\    /   O peration     | Version:  2206                                  |
|   \\  /    A nd           | Website:  www.openfoam.com                      |
|    \\/     M anipulation  |                                                 |
\*---------------------------------------------------------------------------*/
FoamFile
{
    version     2.0;
    format      ascii;
    arch        "LSB;label=32;scalar=64";
    class       volScalarField;
    location    "3";
    object      p;
}
// * * * * * * * * * * * * * * * * * * * * * * * * * * * * * * * * * * * * * //

dimensions      [0 2 -2 0 0 0 0];

internalField   nonuniform List<scalar> 
18114
(
0.0009973711596972233
0.0008105522431112754
0.0007056723768592461
0.0006657093449026573
0.0006386609263780824
0.0006103321674274279
0.0005830846407085505
0.0005590101592853061
0.000537245421257959
0.0005164517974873349
0.000496089001886402
0.0004761903266893935
0.0004573110605646119
0.0004374815085102111
0.0004160583434337066
0.0003953343477181451
0.0003758522947177106
0.0003575544747603649
0.0003406154695963069
0.0003251929250355983
0.0003113271573670467
0.0002990386037103634
0.0002883553325152536
0.0002792554802693636
0.0002716449177261224
0.0002653652254054798
0.0002602153958716374
0.0002559990517721181
0.0002525488769980975
0.0002496915869712163
0.0002472517416608663
0.0002450807219428979
0.0002430507520605266
0.000241073499689458
0.0002390644008087594
0.0002369995312833513
0.0002348070868088966
0.0002325166956176658
0.0002299443088688103
0.0002274649268378779
0.0007936933828911142
0.0007454838605356896
0.0006918754768686656
0.0006571771917715379
0.000631024792632893
0.0006058553929449811
0.0005817523156305354
0.0005595339681311604
0.0005389011700581693
0.0005187258535936722
0.0004985029779858551
0.0004781595153834759
0.0004571121246409026
0.0004355196403726495
0.0004141082405927659
0.000393929968387554
0.0003752256496213158
0.0003578655862696339
0.0003417907413877581
0.0003272096172891454
0.0003140619839043769
0.0003022369572688905
0.0002918384459991213
0.0002829027149383016
0.0002753377816051691
0.0002690380622977176
0.0002638088613832524
0.0002594942900158052
0.0002558818044411436
0.0002528425942512133
0.0002501826796726353
0.0002477925718490207
0.0002455161343768254
0.0002433337482949569
0.0002410989333786001
0.0002388588639726677
0.0002364543151707375
0.0002340481409364134
0.0002310637892216441
0.0002283270321789032
0.0007417035256395795
0.0007151007636320344
0.0006758555885276833
0.0006428098330798152
0.0006174680446477038
0.0005945613278917191
0.000571832806761515
0.0005503525725663749
0.0005310062622141213
0.0005117915668199927
0.0004923771052308035
0.0004730575466984652
0.0004537786648100465
0.0004347058506903689
0.0004162171737727381
0.0003985765294750085
0.0003819566455081
0.000366290219942801
0.0003512911184556247
0.0003370443024972232
0.0003237778992096333
0.0003117206029038247
0.0003010148691209137
0.0002916516929687942
0.0002835637266329171
0.0002766286012377812
0.0002707077534457345
0.0002656655524289267
0.0002613104590604377
0.0002575381236069038
0.0002541497432820107
0.0002510540492366284
0.0002481453499469077
0.0002454416158765084
0.0002427734500352919
0.0002401633982403214
0.0002373822642215832
0.0002347152685997403
0.0002313296173533243
0.0002283106887176701
0.0006810929863401245
0.0006683370282941744
0.0006449315786503205
0.0006208596919942763
0.0005997442567822457
0.000580358244602389
0.0005608998343985441
0.0005418869390431813
0.0005237738318516855
0.0005059219061665673
0.0004881495811628477
0.0004704321616529747
0.0004528882899054915
0.0004352967171730754
0.0004181135833987162
0.0004012779018995894
0.0003853376996446351
0.0003707717429447965
0.0003566477312472405
0.0003430422487867969
0.0003304296953091924
0.0003188830428146995
0.0003084829061177857
0.0002992385527809313
0.0002912261004347421
0.0002841642946019438
0.000278054288448642
0.0002727362656191626
0.0002679355616207831
0.0002635353068826237
0.0002594914968219999
0.0002558113791961188
0.0002524144246962158
0.0002491845209746186
0.0002460459465696243
0.0002429792770071764
0.0002398934477061904
0.0002368193825261191
0.0002334619445854881
0.000230514292192758
0.0006435592524408471
0.0006369739777192913
0.0006219096014168042
0.0006034880040632356
0.0005855481418153544
0.000568423318861577
0.0005512848012072087
0.0005340705401877222
0.0005171617211815263
0.0005005000669444665
0.0004839795918868487
0.0004675017472253779
0.000451168235936446
0.000434989296799416
0.0004191624870023886
0.000403764512921395
0.0003890246716089514
0.0003751098355587691
0.0003617844099723601
0.0003490650840319068
0.0003372143545786233
0.0003262937778956192
0.0003162954578319569
0.0003072066020210141
0.0002990144046931931
0.0002915696968939467
0.0002850565790774823
0.0002794323885483603
0.0002741446144055818
0.0002691611031654086
0.000264586070960545
0.0002604644000443803
0.0002566289072348497
0.0002528959001255803
0.0002492691537893927
0.0002457741221755865
0.0002423592817313251
0.0002389785865395567
0.0002355414685805547
0.0002322645506063833
0.0006128076922770173
0.0006084749424415761
0.0005979453570153205
0.0005839524993287808
0.0005692503890960706
0.0005545489345220876
0.0005396436735178366
0.0005244395583327603
0.0005092135511143625
0.0004940528762681479
0.000478952757926288
0.0004638746595278676
0.0004489017617628811
0.0004341036256770792
0.0004195875390677382
0.0004054264271034619
0.0003917279991185905
0.0003786058066646866
0.0003660560888205696
0.0003541177456038642
0.0003428580468866792
0.0003323851482355546
0.0003226543163666353
0.0003137352475333675
0.0003055457207588106
0.0002981221211235977
0.0002913908642851497
0.0002852802497648388
0.0002795783421847214
0.0002742366303096387
0.0002693203122779632
0.0002649394838485616
0.0002608156212897604
0.0002566854213709047
0.0002526528254099596
0.0002487830584140376
0.000244960977330083
0.0002411887838253018
0.0002375038148064221
0.0002340129787935747
0.0005878681364535989
0.0005848966347603862
0.0005773988477166609
0.0005667330996467276
0.0005547338244791857
0.0005421823367513014
0.0005291726572871628
0.0005157204498747514
0.0005020197818897096
0.0004882126650604315
0.0004743667639109179
0.0004605078008518728
0.00044670504340245
0.000433032840524014
0.0004195763909813301
0.000406414831890939
0.000393634587603264
0.0003813234666020677
0.0003695211782021117
0.0003582568228336368
0.0003475707157811284
0.0003375251267745808
0.0003281310691271508
0.0003194109303113284
0.0003113431432581501
0.0003039040234038472
0.000297020957902426
0.0002906578831504256
0.0002847355129006748
0.000279195596311616
0.000274041411301511
0.0002692045681260158
0.0002645932327399321
0.0002600811088832914
0.0002557277056192809
0.000251506390396452
0.0002474038554839263
0.0002433614473627389
0.0002394792801101397
0.0002355883308854216
0.0005670083829429865
0.000564796078541778
0.0005591113268890383
0.0005506950901576589
0.0005407817816218975
0.0005300444834556403
0.0005186842674961032
0.0005067907565716582
0.0004945253908085538
0.0004820382989611374
0.0004694289767915399
0.0004567572020531908
0.0004440916348471173
0.0004315055538014658
0.0004190777686720765
0.0004068819008394071
0.0003949915207802201
0.000383471859538866
0.0003723707842761321
0.0003617221140288049
0.0003515655620782442
0.0003419413555037224
0.0003328702075695568
0.0003243570759865267
0.0003163919093631648
0.0003089470776472334
0.000301989156639607
0.0002954831776706556
0.0002893806488355288
0.0002836201882555664
0.0002781770657184791
0.0002729965288111001
0.0002680503054628643
0.0002632672319054102
0.0002586411953909983
0.0002541441704767522
0.0002497706537358356
0.0002454799209953128
0.0002413389161891936
0.0002372061983736201
0.0005491785395695012
0.0005474406177653186
0.0005429575725855395
0.0005361810155570182
0.0005279482094549663
0.0005187731690972755
0.0005088695397734241
0.0004983637048389944
0.0004874071422151334
0.0004761432243880398
0.0004646822242733609
0.0004531022048924333
0.000441477595784247
0.0004298810735790958
0.0004183872498888621
0.000407063578600957
0.000395975423210668
0.0003851789641149506
0.0003747231385320923
0.0003646449322318238
0.000354979674527718
0.0003457557741787578
0.0003369918145742046
0.0003286913035948055
0.0003208497169868122
0.0003134484190721247
0.0003064652765683594
0.0002998667323216337
0.0002936172455516366
0.0002876717566660908
0.0002820045604419605
0.0002765801839807991
0.0002713705518881429
0.0002663272873144803
0.0002614297121068421
0.0002566596033736973
0.0002520144597311308
0.0002474666786269841
0.0002430738139906104
0.0002387244133602341
0.0005337335363640847
0.000532324899619357
0.0005286844038527946
0.0005231088499887342
0.0005161856812524349
0.0005082963900903786
0.0004996326615112902
0.0004903303870749203
0.0004805340969219488
0.0004703767578067631
0.0004599684785602236
0.0004493940233751244
0.0004387308823355956
0.0004280496565577308
0.0004174205911936989
0.0004069059002764197
0.0003965655257836485
0.0003864502374050843
0.0003766062892424747
0.0003670689910861327
0.000357870053755878
0.000349032287556888
0.0003405728658166772
0.0003324959940523038
0.0003248003633948126
0.0003174720842954401
0.0003104945314531305
0.0003038406875870989
0.0002974853421909689
0.0002913956825091806
0.000285548407686998
0.0002799139833130653
0.0002744675948302636
0.0002691775926828802
0.0002640279456195068
0.0002590044967674918
0.0002541077354473969
0.0002493147203272397
0.000244680189294092
0.0002400983339693607
0.0005202222099539251
0.0005190526107679924
0.0005160256615529391
0.0005113505123315819
0.0005054592588972657
0.0004986346975955347
0.0004910345289788589
0.0004827858140416843
0.0004740225646369416
0.0004648660228441225
0.0004554206077863985
0.0004457703941945812
0.0004359924844400905
0.0004261546814291532
0.0004163232877487534
0.0004065560255776655
0.0003969084271870758
0.0003874268062052124
0.0003781540410358187
0.0003691229574100082
0.0003603628413731434
0.0003518936613351554
0.0003437312072301981
0.0003358799858175843
0.0003283404477761625
0.0003211021968111947
0.0003141534293186719
0.0003074734433004254
0.0003010436438948576
0.0002948387086332283
0.0002888391808146727
0.0002830213107529558
0.0002773670176911966
0.000271854911761001
0.0002664739255355939
0.0002612124923942205
0.000256074228255795
0.0002510392700240251
0.0002461638511368001
0.0002413502349192137
0.000508315338658262
0.0005073261277611733
0.0005047638972712685
0.0005007839380911705
0.0004957171463047909
0.0004897748958535003
0.0004830816163389913
0.000475748228186191
0.0004678957515229187
0.0004596333042742599
0.0004510576947877773
0.000442248483549263
0.0004332798460925395
0.0004242158200180345
0.0004151187769702304
0.0004060420460443854
0.0003970370853201588
0.0003881461936993976
0.0003794089327229895
0.0003708554426149207
0.0003625126860052503
0.0003543984712635184
0.0003465271869077849
0.000338903390704611
0.0003315287340724896
0.0003243955021512626
0.0003174954764072707
0.0003108124476656867
0.0003043325561220278
0.0002980359606924116
0.0002919079107586503
0.0002859299961162418
0.0002800898929982604
0.0002743724665933689
0.0002687714149769203
0.0002632790367014996
0.0002579030063115538
0.0002526269075147946
0.0002475095380599003
0.0002424609299065881
0.0004977649129454959
0.0004969163503057634
0.0004947170873810361
0.0004912864513490611
0.0004868867385918417
0.000481678427517116
0.0004757583100763612
0.0004692197833208827
0.0004621701382972344
0.0004547055462316125
0.0004469143512932309
0.0004388693881027935
0.0004306405826029764
0.0004222870901213812
0.0004138671914375747
0.0004054295609286061
0.0003970219365128296
0.0003886827909804166
0.0003804484250340716
0.0003723462491613964
0.000364400675069404
0.0003566277709186733
0.0003490405324900731
0.0003416435150837676
0.0003344388844980169
0.0003274209121145681
0.0003205836417362464
0.0003139141866890809
0.0003074021618818526
0.0003010321196529168
0.0002947932835601032
0.0002886718997843735
0.0002826600736151379
0.0002767478846909058
0.0002709336053630162
0.0002652138791303346
0.0002596010031365503
0.0002540819902457029
0.0002487191427729524
0.0002434310905477192
0.000488377910184181
0.0004876416504426561
0.0004857328568115407
0.0004827453974692907
0.0004788929292075395
0.000474299779491291
0.0004690413346055716
0.0004631942463042495
0.0004568518689890628
0.0004500980356058339
0.0004430126623560154
0.0004356606253019909
0.0004281064738331201
0.0004204040723066031
0.0004126076401421704
0.0004047612512857163
0.0003969090250603997
0.0003890855233651739
0.0003813237169886909
0.000373648867206861
0.0003660820819410104
0.0003586379882822887
0.0003513277361576007
0.0003441562145427694
0.0003371249761277209
0.0003302300120054037
0.0003234661993201912
0.0003168235159856987
0.0003102934162144243
0.0003038642738551628
0.0002975277989401292
0.0002912746330320336
0.0002851002698037597
0.0002789995021177475
0.0002729752058798491
0.0002670272726245087
0.0002611737482050333
0.0002554053756024046
0.0002497882876538505
0.0002442502176390686
0.0004800001242800703
0.0004793556278992961
0.0004776836835217745
0.000475060474144925
0.0004716629956509534
0.0004675902427381058
0.0004628993769166139
0.000457654838929425
0.0004519369977986961
0.000445818635398252
0.0004393674214232599
0.0004326418782400167
0.0004257019284199062
0.0004185974797772144
0.0004113756229080372
0.0004040776971513528
0.0003967427014995361
0.0003894024539012134
0.000382086028422975
0.0003748168790227417
0.0003676124966129823
0.0003604857553843152
0.0003534465896380723
0.0003464983535358335
0.0003396431546263912
0.0003328769993266355
0.0003261950573432092
0.0003195893259130036
0.0003130518174245157
0.000306573937706383
0.0003001491973684661
0.0002937715261498081
0.0002874392997555656
0.0002811515592935158
0.0002749153651530133
0.000268733209132417
0.0002626301413253564
0.0002566007675835517
0.0002507157153305343
0.000244912657589118
0.000472506017959757
0.0004719377640760374
0.0004704622608174826
0.0004681432550435309
0.000465128924257987
0.000461499033880936
0.000457298554841361
0.0004525838812819013
0.0004474189241047043
0.0004418655669092596
0.0004359836272925766
0.0004298276513890494
0.0004234484594427134
0.0004168915707091082
0.000410199994961344
0.000403411154158692
0.0003965591554115219
0.0003896738352987198
0.0003827796325591659
0.0003758965382899772
0.0003690397760667762
0.0003622208532799789
0.0003554462815287682
0.0003487195246235804
0.0003420423537338798
0.0003354095552575459
0.0003288164567263594
0.0003222557079772586
0.0003157193503215876
0.0003092006890896719
0.0003026937997275011
0.0002961957235260312
0.0002897069339731785
0.0002832290009061758
0.0002767740585492671
0.000270347099428957
0.000263980413841118
0.0002576727851297096
0.0002515000944997884
0.0002454107768100864
0.0004657915498418055
0.0004652874008427555
0.0004639775865477235
0.0004619158743914278
0.0004592276230701931
0.0004559785988598727
0.0004522073055856896
0.0004479580335893973
0.0004432813685348965
0.0004382327733689301
0.000432865007935122
0.0004272256540812977
0.0004213590566522356
0.0004153065531652485
0.0004091059619473382
0.0004027911798899724
0.0003963923897682522
0.0003899351426881804
0.0003834406229223858
0.0003769261646214122
0.0003704047812509191
0.0003638853255400587
0.0003573726242482783
0.0003508683228175503
0.0003443707688053716
0.00033787574058295
0.0003313772759795112
0.0003248680522695885
0.0003183397896223224
0.0003117861499940226
0.000305201411824319
0.0002985838043249065
0.0002919360745399904
0.0002852610611547393
0.0002785762856170268
0.0002718887259361688
0.0002652383020845562
0.0002586285895061077
0.0002521417636897684
0.0002457380451119883
0.0004597690836969661
0.0004593196078449614
0.0004581513474739306
0.0004563098480639136
0.0004539022320732997
0.0004509848162845651
0.000447589739895827
0.000443749801573569
0.0004395080122846507
0.0004349130371325228
0.0004300103688029793
0.0004248413325853287
0.0004194448778515528
0.0004138576241602616
0.0004081130841543323
0.0004022411004320097
0.0003962677361594055
0.0003902152618558479
0.0003841020028402965
0.0003779422279035626
0.0003717461047496553
0.0003655199005318493
0.0003592662483339752
0.0003529844711003946
0.0003466709798257169
0.0003403199299783643
0.0003339232442982437
0.0003274728424147006
0.0003209586484989861
0.0003143743298150815
0.0003077141245006752
0.0003009751483083789
0.0002941624600415754
0.000287280013507108
0.0002803500398657738
0.0002733807986038884
0.0002664201591981257
0.0002594771732615751
0.0002526416689947981
0.0002458870363150936
0.0004543639204566686
0.0004539616301906659
0.0004529157175210453
0.0004512647813519861
0.0004491013357287392
0.0004464747324581081
0.0004434106671289332
0.0004399341127230333
0.0004360817709583539
0.0004318957107086613
0.0004274151231646262
0.0004226758844349026
0.0004177120284405563
0.0004125556338840983
0.0004072359987126877
0.0004017791468754605
0.0003962076920858789
0.0003905406152092098
0.0003847930222982706
0.0003789761383902371
0.0003730973604003392
0.0003671603197215684
0.0003611650516135749
0.0003551082992392207
0.0003489839593775341
0.0003427835800223354
0.0003364969419805504
0.0003301131774488296
0.0003236211766942173
0.0003170116593215575
0.0003102775557982303
0.0003034159429871848
0.0002964293300406607
0.0002893243992066774
0.0002821279515806684
0.0002748501929730749
0.0002675463730638577
0.0002602308340154
0.0002530028082859683
0.0002458506545624227
0.0004495116017485637
0.000449150490857384
0.0004482113973464537
0.0004467270193908531
0.0004447780183662207
0.0004424081221110161
0.0004396376408145559
0.000436485755685573
0.0004329838283732086
0.0004291681182822241
0.0004250723754888813
0.000420727624425464
0.0004161634185237856
0.0004114076706535899
0.0004064858632931959
0.0004014204996608004
0.000396230815454881
0.0003909325536321385
0.0003855377999308306
0.0003800548986329254
0.0003744883964914854
0.0003688390602306172
0.0003631040321711611
0.0003572771089808314
0.0003513491322888079
0.0003453084978178378
0.000339141822294718
0.0003328348552832174
0.000326373450806746
0.0003197448876269819
0.0003129395423011722
0.0003059522956116523
0.0002987842624732776
0.0002914425136652349
0.0002839510255810834
0.0002763295166029591
0.0002686410505186609
0.0002609044236700903
0.0002532292965423474
0.0002456211362903225
0.0004451559349980605
0.0004448311144541605
0.0004439861462819898
0.0004426487012408327
0.0004408896042848997
0.0004387479732491728
0.0004362397232280312
0.0004333797800219992
0.0004301949251004734
0.00042671639300669
0.0004229732571051602
0.0004189922873705064
0.0004147990674755792
0.0004104177843563257
0.0004058704346888825
0.0004011762374161663
0.0003963513068360777
0.0003914084175886313
0.0003863567862969402
0.0003812018944322159
0.0003759453849888494
0.0003705850518075654
0.0003651149343939019
0.0003595255256727762
0.0003538041150055708
0.0003479352742384069
0.0003419015284910682
0.000335684277250943
0.0003292648820023175
0.0003226259778370721
0.0003157530838950434
0.0003086378003361524
0.0003012796985232023
0.000293684533550761
0.0002858697698596245
0.0002778642991521993
0.0002697373245434099
0.0002615181850954549
0.000253327853467952
0.0002451898609657932
0.0004412474626251098
0.0004409549060746927
0.0004401935924825126
0.000438986870849414
0.000437397292616685
0.0004354599799261543
0.0004331875892997955
0.0004305918560356304
0.000427695541680505
0.0004245256433242573
0.0004211072622476491
0.0004174634935359377
0.0004136164519475258
0.0004095870286630374
0.0004053941038799699
0.0004010539502252006
0.0003965798690321597
0.0003919819006379566
0.000387266547868709
0.0003824365414988784
0.0003774906753506744
0.0003724237185746582
0.0003672264222123707
0.0003618856479297986
0.0003563846576528884
0.0003507035223270942
0.0003448197375066056
0.0003387092049666458
0.0003323473710097895
0.0003257109473495016
0.0003187787017908817
0.0003115352408870974
0.0003039762889684062
0.0002961040606138588
0.0002879382560854859
0.0002795074532477881
0.0002708782920260978
0.0002621006820558516
0.00025330985121057
0.0002445479759626457
0.0004377422810956414
0.0004374786367007403
0.0004367922681133554
0.0004357027691785475
0.0004342655419351469
0.0004325122731000662
0.0004304535247255412
0.0004280983464500382
0.0004254660978572962
0.0004225802508290464
0.0004194625674015962
0.0004161330146540826
0.0004126107303883805
0.0004089137583688041
0.0004050582704571097
0.0004010579605130898
0.0003969236397411783
0.0003926628959092151
0.0003882797603904391
0.0003837744021868483
0.0003791428754753132
0.0003743769331915177
0.0003694639258242343
0.0003643868104531055
0.0003591243878769132
0.0003536516547428525
0.0003479401295795896
0.0003419589593479729
0.000335675471334692
0.0003290580876674262
0.0003220798728135159
0.0003147174345701753
0.0003069530296900912
0.0002987853697912966
0.0002902306029254244
0.0002813201820349205
0.0002721157327713884
0.0002626891856775249
0.000253191691458976
0.000243689817832909
0.0004346011048913659
0.0004343635540401345
0.0004337448104326668
0.0004327611423567408
0.0004314616549877037
0.0004298752986810267
0.0004280112561032598
0.0004258763360872841
0.0004234870697864494
0.0004208640305330207
0.0004180262142682875
0.0004149909766466324
0.0004117749631589043
0.0004083938272404469
0.0004048614583739472
0.0004011893676344308
0.0003973862469919183
0.0003934575760210221
0.0003894052233837943
0.0003852270566875755
0.0003809165894865898
0.000376462679992863
0.000371849289886351
0.0003670552929596117
0.0003620544849477528
0.0003568163126626128
0.0003513057258027589
0.0003454830154547024
0.0003393078123961539
0.0003327384327582803
0.0003257344979280385
0.0003182604143635457
0.0003102890731958189
0.0003018092865988382
0.0002928290800040378
0.000283378487630124
0.0002735203523570704
0.0002633411931427775
0.0002530007793186806
0.000242611409317514
0.0004317885378054573
0.0004315746821715967
0.0004310173417839679
0.0004301297798862375
0.000428955513833441
0.0004275214302863978
0.0004258358116728128
0.000423903611468719
0.0004217390424891631
0.000419360340395625
0.000416784256834367
0.0004140260240410364
0.0004111002689416158
0.0004080207141824932
0.0004047994106659883
0.000401446117701468
0.00039796782862072
0.0003943683217639534
0.0003906476886323946
0.0003868018495493485
0.0003828220863873938
0.0003786946058530896
0.0003744001611213674
0.0003699136152540908
0.0003652035172585902
0.0003602329347176513
0.0003549597176927729
0.0003493355551298164
0.0003433073406973647
0.0003368204084439593
0.0003298200439950546
0.0003222555746002949
0.0003140854704692004
0.0003052828168935335
0.000295842695676775
0.0002857886100784441
0.0002751825245848144
0.0002641246828262009
0.0002527790565627344
0.0002413173903074332
0.0004292724854165488
0.0004290802621888738
0.0004285789725757264
0.0004277791134894536
0.0004267192311191151
0.0004254247514188283
0.0004239034112324273
0.0004221586227820065
0.0004202027374603208
0.0004180521586337818
0.0004157218693312904
0.0004132254387094268
0.0004105759370022925
0.0004077856183398124
0.0004048651571558796
0.0004018230259951797
0.0003986649891292413
0.0003953935983319552
0.0003920076450587237
0.0003885015744200352
0.000384864882663196
0.0003810815056321961
0.0003771292098853086
0.0003729791499467422
0.000368595573145291
0.0003639345699221253
0.0003589441989081769
0.0003535661233905
0.0003477350516680743
0.0003413805068881261
0.0003344298415130107
0.0003268122335119431
0.0003184643251389079
0.0003093374061028122
0.0002994069688710397
0.0002886828545027058
0.0002772208025960553
0.0002651316129731248
0.0002525884189479693
0.0002398252474872982
0.0004270237017730452
0.0004268513121750027
0.0004264014022888661
0.0004256818765758233
0.0004247268687672041
0.0004235608833396827
0.0004221913692199385
0.0004206204509587457
0.0004188590329678096
0.0004169221445579146
0.000414823433815413
0.0004125752404756675
0.0004101895279820753
0.0004076775451236394
0.0004050490670956704
0.0004023117757390892
0.0003994707264350173
0.0003965277914453873
0.0003934810399369545
0.0003903240387295396
0.0003870451121092984
0.0003836265517177215
0.0003800437330458288
0.0003762645228027556
0.0003722484168105876
0.000367944898693201
0.0003632933007829804
0.0003582237560628211
0.000352656396810297
0.0003465023540445234
0.0003396665751894358
0.0003320520917687017
0.0003235664084452062
0.0003141304236628079
0.0003036902585563476
0.0002922315387472956
0.0002797949448016552
0.0002664938886178482
0.0002525180228992348
0.0002381667537964565
0.0004250154193897777
0.000424861274082448
0.0004244586029255559
0.0004238128369294747
0.0004229542250932652
0.0004219068396507012
0.0004206780104120711
0.0004192687791468897
0.0004176889851033691
0.0004159526981545514
0.0004140726253490786
0.0004120602859430313
0.0004099269724128405
0.0004076833879198551
0.0004053388966856223
0.0004029009147681025
0.0004003743562453675
0.0003977610353479908
0.0003950589728696998
0.0003922616203348505
0.0003893569036841809
0.0003863262273465439
0.0003831433965778441
0.0003797739242208366
0.0003761730653134085
0.0003722844324957872
0.0003680392216339985
0.0003633551194040161
0.0003581358414987872
0.0003522713639466554
0.0003456398796758672
0.0003381118231356185
0.0003295566598262826
0.00031985327058763
0.0003089045105374929
0.0002966565369676154
0.0002831203808316335
0.0002684012269030342
0.0002527004630312466
0.0002363894029751972
0.000423223076706477
0.0004230857509036029
0.0004227265728019518
0.0004221485768765367
0.000421378663046748
0.0004204409139225803
0.0004193426086405064
0.0004180838752777093
0.0004166738547851432
0.0004151260277342289
0.0004134525079922089
0.0004116643771750304
0.0004097726787160655
0.0004077880228710222
0.0004057198561403622
0.0004035758743000412
0.0004013614639946164
0.0003990790554066113
0.0003967274172453023
0.0003943008008711428
0.0003917876027494396
0.0003891690140508498
0.000386419347386778
0.0003835029388475166
0.0003803718398536561
0.000376964757592683
0.0003732051630235931
0.0003689988733265274
0.0003642325066801033
0.0003587726410283135
0.0003524663971449308
0.0003451444269143694
0.0003366274066781013
0.0003267373937942785
0.0003153151762188177
0.0003022455393747096
0.0002874867613880526
0.000271116191966358
0.0002533328251284048
0.0002345877662852478
0.0004216240924736305
0.0004215022892972295
0.0004211831486663186
0.0004206673515976646
0.0004199790148256711
0.0004191426337538013
0.0004181653886803714
0.0004170466327481328
0.0004157951735580809
0.0004144242349513596
0.0004129456431367038
0.0004113703937959439
0.0004097096777155138
0.0004079744483572264
0.0004061747230719572
0.0004043190409347677
0.0004024138912267086
0.0004004630982739831
0.0003984670707373394
0.0003964215820906304
0.0003943161553571931
0.0003921351941470702
0.0003898541347153683
0.0003874368223765284
0.0003848344907373542
0.0003819832335651358
0.0003788004451107753
0.0003751813902509656
0.0003709960866183916
0.0003660865574277971
0.0003602652055854735
0.0003533156863805471
0.0003449978446077051
0.0003350588695718985
0.0003232526629762833
0.0003093714743682671
0.0002932851091985287
0.0002750093863112497
0.0002547120739419484
0.000232926972700247
0.0004201977170065225
0.0004200902438299231
0.0004198078726265546
0.0004193489608337167
0.0004187354826896357
0.0004179926867992599
0.0004171274773620227
0.0004161385777067471
0.000415034823976245
0.0004138294464957702
0.0004125342418809823
0.0004111604527548349
0.0004097197900157269
0.0004082239550198294
0.0004066840083050259
0.0004051098799131895
0.0004035098617850905
0.000401889938930112
0.0004002529095388715
0.0003985965344838818
0.0003969152938645675
0.0003951966716496346
0.0003934182206958056
0.0003915466704908655
0.0003895354872908222
0.0003873207286544984
0.0003848166766348468
0.0003819110423462843
0.0003784595694711007
0.0003742804851735003
0.0003691496641136817
0.0003627977627114261
0.0003549114621073192
0.0003451421077703215
0.000333124982585479
0.0003185165747931932
0.000301044344676968
0.0002806063770240807
0.000257284141546714
0.0002316820363654225
0.0004189249265324051
0.0004188306721254342
0.0004185818662411035
0.0004181746392653903
0.0004176295913155819
0.0004169729339518976
0.0004162109503966763
0.0004153419284889676
0.0004143751144852587
0.0004133239371784535
0.0004122003601327905
0.0004110161613162693
0.0004097839014999934
0.0004085164098218702
0.0004072262312410105
0.0004059252173751033
0.0004046241394473223
0.0004033318413442541
0.0004020536205072066
0.0004007929834986527
0.0003995489981710884
0.0003983131616643822
0.0003970686665232377
0.0003957884090397269
0.0003944310901897599
0.0003929366951240887
0.0003912211872145787
0.0003891697896446044
0.0003866289177411637
0.0003833970360473253
0.0003792150216639735
0.0003737575297689448
0.0003666275178537203
0.0003573582919221037
0.0003454281101285537
0.0003302997827876205
0.0003114791085436812
0.0002886549415626818
0.0002617216373661644
0.0002313104093332582
0.0004177883310943051
0.0004177062350454916
0.000417487829120521
0.0004171271500504453
0.0004166443002094589
0.0004160665249716422
0.0004153989638133454
0.0004146397629395267
0.000413798951051888
0.0004128902637311048
0.0004119260029466796
0.0004109187487211573
0.0004098821630351532
0.0004088304610916179
0.0004077782146915692
0.0004067397000238062
0.0004057285176284292
0.0004047562245781406
0.0004038340653465869
0.0004029710803470317
0.0004021713021065125
0.0004014333592844393
0.0004007491601393661
0.0004001006829392107
0.0003994559990757881
0.0003987644725587048
0.000397950272157145
0.0003969037611792523
0.000395470559345147
0.0003934380436044794
0.0003905194113258589
0.0003863363516747121
0.0003804027435019734
0.0003721143107477139
0.0003607500141589998
0.0003455054590869436
0.0003255515433119476
0.0003002225990957956
0.0002690452819452814
0.0002325647701038329
0.0004167721536559881
0.0004167011762524378
0.0004165099227377853
0.0004161905960719232
0.0004157638431041477
0.0004152577891384604
0.0004146757359813716
0.0004140161595855281
0.0004132901691871201