/*--------------------------------*- C++ -*----------------------------------*\
| =========                 |                                                 |
| \\      /  F ield         | OpenFOAM: The Open Source CFD Toolbox           |
|  \\    /   O peration     | Version:  2206                                  |
|   \\  /    A nd           | Website:  www.openfoam.com                      |
|    \\/     M anipulation  |                                                 |
\*---------------------------------------------------------------------------*/
FoamFile
{
    version     2.0;
    format      ascii;
    arch        "LSB;label=32;scalar=64";
    class       surfaceScalarField;
    location    "3";
    object      phi;
}
// * * * * * * * * * * * * * * * * * * * * * * * * * * * * * * * * * * * * * //

dimensions      [0 3 -1 0 0 0 0];

oriented        oriented;

internalField   nonuniform List<scalar> 
35915
(
4.183864562481688e-05
8.647551488419473e-07
4.050694156562708e-05
1.331703837429139e-06
3.908320172875757e-05
1.423739473402133e-06
3.760773794778159e-05
1.47546328144382e-06
3.607947130116672e-05
1.528266018361894e-06
3.452198092902184e-05
1.557489623972905e-06
3.29538431318362e-05
1.568136938964518e-06
3.139002223015693e-05
1.563819944207525e-06
2.984027116242469e-05
1.549750022474549e-06
2.831148515896653e-05
1.528784881998442e-06
2.680733369893203e-05
1.504150273948132e-06
2.532733503904709e-05
1.479997420379453e-06
2.387950996689929e-05
1.447823789510319e-06
2.248306479528321e-05
1.396443855003645e-06
2.115198165394597e-05
1.331081798212272e-06
1.989386580307912e-05
1.258114486793852e-06
1.87144897769e-05
1.179374644290035e-06
1.761890604267983e-05
1.095582334842301e-06
1.661102690534621e-05
1.007877717588446e-06
1.569416525854306e-05
9.168602002867785e-07
1.487002091395749e-05
8.241428609785638e-07
1.413510682445001e-05
7.349125542649718e-07
1.34841466699172e-05
6.509585486634954e-07
1.291201110247309e-05
5.7213386724313e-07
1.24131329060942e-05
4.988763732775645e-07
1.198091735233571e-05
4.322135740438989e-07
1.160850147524684e-05
3.724137020525009e-07
1.128857387360642e-05
3.199251874689897e-07
1.10144191697559e-05
2.741520017300948e-07
1.077937903662816e-05
2.350370895122855e-07
1.057757888941372e-05
2.017967039622236e-07
1.04030594037219e-05
1.745155805285299e-07
1.025081724386411e-05
1.522377269673435e-07
1.011621698341012e-05
1.345952310536722e-07
9.995782408221767e-06
1.204288784547522e-07
9.886262234060928e-06
1.095137381473771e-07
9.78493017617533e-06
1.013248109100347e-07
9.689914398108758e-06
9.500764897172616e-08
9.596198030050834e-06
9.370728984177878e-08
9.576709847621741e-08
9.50042093998405e-06
4.306958897808797e-05
4.98566945617457e-07
4.338711755443011e-05
1.014175043714929e-06
4.352815583856276e-05
1.282700833610162e-06
4.355424288893142e-05
1.449375742919176e-06
4.350522929711312e-05
1.577278997059204e-06
4.337699664740688e-05
1.685721544483027e-06
4.3178258233565e-05
1.766874517530202e-06
4.291641696671887e-05
1.825660280628976e-06
4.260113258765327e-05
1.865033387383283e-06
4.223675463986457e-05
1.893161743736245e-06
4.182733558580805e-05
1.91356818168725e-06
4.138343172460308e-05
1.92390008626353e-06
4.090645271526551e-05
1.924801564979061e-06
4.039760032862206e-05
1.905294978515759e-06
3.985536221857405e-05
1.873318623571087e-06
3.928542341224403e-05
1.828051992567406e-06
3.869390406596384e-05
1.770892677512459e-06
3.808702713630739e-05
1.702457939448194e-06
3.746981383248075e-05
1.625089681851021e-06
3.684597924295929e-05
1.540693429669985e-06
3.62194049683248e-05
1.450715744960325e-06
3.559635363513181e-05
1.357962452311365e-06
3.498338715064388e-05
1.263923535031683e-06
3.438473712226069e-05
1.17078231143105e-06
3.380236967387682e-05
1.081242123422961e-06
3.323828960666615e-05
9.962917961683419e-07
3.269414323230858e-05
9.165580465304593e-07
3.217120031195627e-05
8.428658502892767e-07
3.167016875855748e-05
7.751810220878007e-07
3.119125975654821e-05
7.139432303561656e-07
3.073496673397248e-05
6.580864800605395e-07
3.030023079686026e-05
6.092478247043844e-07
2.988649529068956e-05
5.659690287465061e-07
2.949231648197434e-05
5.287692559776991e-07
2.911695615501681e-05
4.957837719395322e-07
2.875837505015101e-05
4.680886884069877e-07
2.841572175454967e-05
4.439711592246812e-07
2.808657173071422e-05
4.241498618727358e-07
2.77730512507494e-05
4.072190265617653e-07
3.961834218315553e-07
2.747262528793704e-05
4.291274034166517e-05
2.892273816303423e-07
4.320292398791922e-05
7.239911880134031e-07
4.347695405667647e-05
1.00867042258283e-06
4.371269867663797e-05
1.213630654028875e-06
4.391931995341264e-05
1.370657132404251e-06
4.409794958873892e-05
1.507091211387517e-06
4.425518050935689e-05
1.609642799542782e-06
4.438998173960354e-05
1.690858164522394e-06
4.449228262129798e-05
1.762731543083185e-06
4.456622465621322e-05
1.819218681523641e-06
4.461580399946662e-05
1.863987758414846e-06
4.464425774849432e-05
1.895445216036304e-06
4.465083132401164e-05
1.918226837868557e-06
4.463365699012475e-05
1.922468140033377e-06
4.459199857021134e-05
1.91497585845062e-06
4.452481350820762e-05
1.895235862944877e-06
4.443378737686132e-05
1.861917614438305e-06
4.432230967821139e-05
1.813934441907808e-06
4.41906784507728e-05
1.756719709223261e-06
4.403964768413953e-05
1.691722986837309e-06
4.386954800155174e-05
1.620814199409371e-06
4.368124942544498e-05
1.546259768137912e-06
4.347665716587794e-05
1.468514484392296e-06
4.325761813655124e-05
1.389819958201515e-06
4.30265540612228e-05
1.312304716639156e-06
4.278578000618609e-05
1.237064237406318e-06
4.253742840578734e-05
1.164907864324763e-06
4.22839946254466e-05
1.096297637032098e-06
4.20270263351825e-05
1.032147060644154e-06
4.176760255579922e-05
9.733644479511758e-07
4.150655077880762e-05
9.191353286467424e-07
4.124569646400897e-05
8.700987835262386e-07
4.098602606413739e-05
8.256355803172905e-07
4.072880218141846e-05
7.859887299723468e-07
4.047425436983124e-05
7.503265436584003e-07
4.022277230485906e-05
7.195650099833142e-07
3.997432356319116e-05
6.924133808947315e-07
3.972811644512602e-05
6.703496100613949e-07
3.948804286897341e-05
6.472843130192508e-07
6.28293332205875e-07
3.925592377828313e-05
4.280203669840887e-05
1.905914642767878e-07
4.29834610607834e-05
5.425666272882362e-07
4.318221301026302e-05
8.099181496806605e-07
4.338339452729e-05
1.01244869482316e-06
4.358070173983296e-05
1.173349366904546e-06
4.37791654506025e-05
1.308626846279823e-06
4.396723684355371e-05
1.421570661467056e-06
4.414576412981908e-05
1.51233005385027e-06
4.431830868849651e-05
1.59018609282452e-06
4.448321252957567e-05
1.654313894138396e-06
4.463938694411227e-05
1.70781235528487e-06
4.47872289784056e-05
1.747602162988864e-06
4.492864732366788e-05
1.77680745497214e-06
4.505974818179112e-05
1.791366235599917e-06
4.51814867824667e-05
1.793236211370681e-06
4.52949957857093e-05
1.781725819965676e-06
4.539824278808201e-05
1.758669583371868e-06
4.548298722861009e-05
1.72918898547799e-06
4.554913859315643e-05
1.690567340145767e-06
4.55974291179911e-05
1.643431464025576e-06
4.562935046833647e-05
1.588891849027412e-06
4.564523364163366e-05
1.530375580061677e-06
4.564705370958022e-05
1.466693369855538e-06
4.56342048422244e-05
1.402667725528839e-06
4.560976926447707e-05
1.336739114455305e-06
4.557280688434081e-05
1.274025326351979e-06
4.552562200399593e-05
1.212091305760739e-06
4.547036838076792e-05
1.151549632127274e-06
4.540786812286914e-05
1.094645454584252e-06
4.5338967863836e-05
1.042262555639047e-06
4.52638428421538e-05
9.942578551628004e-07
4.518354289620557e-05
9.503958295143856e-07
4.509913990017818e-05
9.100352063687074e-07
4.501130289409429e-05
8.738218270459831e-07
4.492034365019992e-05
8.412812673103799e-07
4.482709366853475e-05
8.128097855421299e-07
4.473157489567704e-05
7.879261859262329e-07
4.46352666462223e-05
7.666510531723774e-07
4.453637304416033e-05
7.461701931454282e-07
7.300485797512943e-07
4.443460918605708e-05
4.274951928777365e-05
1.444729625223229e-07
4.286609159519407e-05
4.259941355183893e-07
4.301289616969849e-05
6.63113275183815e-07
4.317120087592398e-05
8.541435795352446e-07
4.333325925158819e-05
1.011290481397589e-06
4.349890411273179e-05
1.142981384243347e-06
4.366499339187396e-05
1.255480701446335e-06
4.382918001612376e-05
1.348142680709968e-06
4.39929520616881e-05
1.426413243060893e-06
4.415622044126071e-05
1.491044668133344e-06
4.431958242434399e-05
1.5444494965974e-06
4.448170757608663e-05
1.585476119175245e-06
4.464305822880235e-05
1.61545590581987e-06
4.480055960538608e-05
1.633863969090999e-06
4.495204601542671e-05
1.641748927370387e-06
4.509501488183839e-05
1.638756103104417e-06
4.522863328768804e-05
1.625050355838017e-06
4.535438879822934e-05
1.6034326845143e-06
4.547084384295794e-05
1.574111535794039e-06
4.557632400003208e-05
1.537950574117031e-06
4.567080221218316e-05
1.494412923155441e-06
4.575414543458145e-05
1.447031651221573e-06
4.582640648948096e-05
1.394431599643165e-06
4.588812894932475e-05
1.340944520741186e-06
4.594056330957216e-05
1.28430395400195e-06
4.598544132022246e-05
1.229146429623316e-06
4.602318474278124e-05
1.174346875512252e-06
4.605124045781581e-05
1.123492746888774e-06
4.607133304567067e-05
1.074551487884892e-06
4.608505371593427e-05
1.028540246475495e-06
4.609295421203176e-05
9.863554036669867e-07
4.60969008702308e-05
9.464468380016816e-07
4.609801569260974e-05
9.089176066279456e-07
4.609593480097367e-05
8.758994267370683e-07
4.609088119759496e-05
8.46330989771809e-07
4.608341439050386e-05
8.20272045088343e-07
4.607387286600883e-05
7.974624160691161e-07
4.606279415707101e-05
7.777236384236944e-07
4.604897000260298e-05
7.599873134950881e-07
7.442560091303874e-07
4.603475464350939e-05
4.273254944368063e-05
1.153243098849159e-07
4.281317147230109e-05
3.453719387843905e-07
4.292406492932601e-05
5.522195454378715e-07
4.305030590956736e-05
7.279022287914811e-07
4.318500187699898e-05
8.765940542892079e-07
4.332494185214872e-05
1.003040870543368e-06
4.346851036955692e-05
1.111911578113413e-06
4.36129249100371e-05
1.203727479468062e-06
4.37580826888745e-05
1.281254762044619e-06
4.390348835644854e-05
1.345638270752744e-06
4.404937110479289e-05
1.398566004761887e-06
4.419479168394299e-05
1.440054796411539e-06
4.433938221705586e-05
1.470864641896375e-06
4.448217067480188e-05
1.491074805232497e-06
4.462264873176395e-05
1.50127019945169e-06
4.475959593501261e-05
1.501808272527413e-06
4.489153930906317e-05
1.493106404378361e-06
4.501843990044105e-05
1.476531569213091e-06
4.513975105115211e-05
1.452799915178129e-06
4.525489890023733e-05
1.42280230625733e-06
4.536267029750105e-05
1.386641151544929e-06
4.546335917917047e-05
1.346342428921929e-06
4.555577791714889e-05
1.302012539541299e-06
4.56409329466513e-05
1.255789167860496e-06
4.571737413231531e-05
1.2078624190297e-06
4.578602290082799e-05
1.16049725613414e-06
4.584739790584513e-05
1.112971374904805e-06
4.59030756769184e-05
1.067814349305376e-06
4.595329118722827e-05
1.024335174428271e-06
4.599864644187371e-05
9.831839609262632e-07
4.604024350904048e-05
9.447570211515478e-07
4.607687135549499e-05
9.098173297864337e-07
4.610819766215047e-05
8.775892245212817e-07
4.613596897339132e-05
8.481255539928496e-07
4.616155503713533e-05
8.20741801304634e-07
4.618502104819264e-05
7.968022646958294e-07
4.620764035997286e-05
7.748386052139461e-07
4.622973025422842e-05
7.556284267550044e-07
4.625131276018044e-05
7.383985793834609e-07
7.250228216816446e-07
4.627053881998894e-05
4.272289991627657e-05
9.582519121259392e-08
4.277963223938494e-05
2.886394659125654e-07
4.286368269553445e-05
4.681688472827006e-07
4.296487079638035e-05
6.267138007609985e-07
4.307704609041031e-05
7.644183569660144e-07
4.319657907457474e-05
8.835074176972272e-07
4.332150012615502e-05
9.869900046235388e-07
4.344953310338964e-05
1.075693940471743e-06
4.357962866491559e-05
1.151158613097559e-06
4.371093383212913e-05
1.214332505064505e-06
4.384301562058603e-05
1.266483621649594e-06
4.397508959422122e-05
1.307980246601044e-06
4.410652083165942e-05
1.339432860756137e-06
4.423650623194523e-05
1.361088906736083e-06
4.43643221949595e-05
1.373453795259837e-06
4.448917452107328e-05
1.376955572001814e-06
4.461015408869823e-05
1.372126536604688e-06
4.472684677225468e-05
1.359838664556601e-06
4.48388895774438e-05
1.340756969640396e-06
4.494594364380783e-05
1.315748178669235e-06
4.504737334669863e-05
1.285211461101692e-06
4.514318549415062e-05
1.250530357977107e-06
4.523297593585987e-05
1.212222224420237e-06
4.531688925232419e-05
1.171876009373621e-06
4.539487018465972e-05
1.129881652536614e-06
4.546749152573533e-05
1.087876059965389e-06
4.55347309068581e-05
1.045732083778804e-06
4.559731673486048e-05
1.005228516777526e-06
4.565571552788932e-05
9.659362372152544e-07
4.570992400708153e-05
9.289751470598746e-07
4.576102085299949e-05
8.936595933915995e-07
4.580951115464488e-05
8.613261365763537e-07
4.585583095786829e-05
8.312681516151324e-07
4.58994888865219e-05
8.044659032527316e-07
4.594100353992008e-05
7.792248933685904e-07
4.598054396797527e-05
7.572589640683377e-07
4.601862118619421e-05
7.367578056122843e-07
4.605487531826116e-05
7.193699081409981e-07
4.609021517647213e-05
7.030534314355727e-07
6.898132813188051e-07
4.612541851834721e-05
4.271771487760449e-05
8.151111726034199e-08
4.276028207325321e-05
2.460721403129065e-07
4.282623757474078e-05
4.022131371022952e-07
4.290895164964798e-05
5.439994457638692e-07
4.300340618479201e-05
6.699634798365126e-07
4.310625030743187e-05
7.806629024811127e-07
4.321539250447945e-05
8.778473772773988e-07
4.332891973268847e-05
9.621662583779481e-07
4.344546648232062e-05
1.034611401077154e-06
4.356399314305186e-05
1.095805389177824e-06
4.368375040357814e-05
1.146725929206928e-06
4.380397286679549e-05
1.187757390491722e-06
4.392393008072196e-05
1.219475308159265e-06
4.404288286367699e-05
1.242135853697224e-06
4.416010477675896e-05
1.256231693559656e-06
4.427491150745481e-05
1.262148745191122e-06
4.438663607100983e-05
1.260401978320991e-06
4.44948257296071e-05
1.251649118779301e-06
4.459911090847891e-05
1.236472014296444e-06
4.46991480821616e-05
1.21571133890053e-06
4.479452171856455e-05
1.189838264908598e-06
4.488503599419062e-05
1.160016620628489e-06
4.49705224836832e-05
1.126736358639269e-06
4.505100682835728e-05
1.091392356432891e-06
4.512659604418446e-05
1.054293174075323e-06
4.519753104388325e-05
1.016941815821466e-06
4.526398186441145e-05
9.792820039584543e-07
4.53263588535298e-05
9.428522150629915e-07
4.538511542267421e-05
9.071802577882414e-07
4.544048284464149e-05
8.736081667985886e-07
4.549291622389065e-05
8.412264514596708e-07
4.554265546104302e-05
8.115868695897826e-07
4.559035971749998e-05
7.835635288414516e-07
4.56362371295515e-05
7.585877124325102e-07
4.568052523733429e-05
7.349355116103806e-07
4.572345013843665e-05
7.143322041463254e-07
4.576519230157016e-05
6.950131024709501e-07
4.580584329604508e-05
6.787155891761929e-07
4.584548011506318e-05
6.634123912645629e-07
6.510305887580489e-07
4.588425767940401e-05
4.271460228399375e-05
7.030964459851294e-08
4.274794812846934e-05
2.127261871513775e-07
4.28008301002653e-05
3.493309919940546e-07
4.286908993080348e-05
4.75739385052704e-07
4.294897311781834e-05
5.900800157892118e-07
4.303765850538241e-05
6.91977202998904e-07
4.313316589794885e-05
7.8233965161185e-07
4.323380641136266e-05
8.615254056796555e-07
4.333819126250939e-05
9.302262206645251e-07
4.344520636833659e-05
9.887899809723195e-07
4.355396014309902e-05
1.037971896090501e-06
4.366364958216835e-05
1.078067754251994e-06
4.377351289772182e-05
1.109611873284912e-06
4.388283314152056e-05
1.132815584155637e-06
4.399092841694017e-05
1.148136500331742e-06
4.409718309425994e-05
1.15589427061411e-06
4.420102745486755e-05
1.156557951364533e-06
4.430200846479319e-05
1.150668581150977e-06
4.439974322101645e-05
1.138737873663333e-06
4.449391817956072e-05
1.121537140472111e-06
4.4584223856797e-05
1.099533489748687e-06
4.467047814052703e-05
1.073763374155941e-06
4.47525447618895e-05
1.044670898628782e-06
4.483041803189992e-05
1.013520355954674e-06
4.490413496536378e-05
9.805775973967404e-07
4.49738521708672e-05
9.472260282149525e-07
4.503973767855098e-05
9.133979437214741e-07
4.510208972993984e-05
8.805016034441936e-07
4.516120380087187e-05
8.480675758052275e-07
4.521734935974696e-05
8.174638967817989e-07
4.52707696829196e-05
7.878072613252334e-07
4.532177989599975e-05
7.60577571236364e-07
4.537074502459686e-05
7.345990271653367e-07
4.541799978778531e-05
7.113332113208738e-07
4.546366389940964e-05
6.892712122727207e-07
4.550800934637242e-05
6.69986026577979e-07
4.555109179153698e-05
6.519292820803399e-07
4.559309034672453e-05
6.367149026484673e-07
4.563387156204602e-05
6.226281711938975e-07
6.113496777513838e-07
4.567354856306035e-05
4.271247223650568e-05
6.123822596956825e-08
4.273944226160282e-05
1.857560750701934e-07
4.278280939717413e-05
3.059637196721459e-07
4.283996028364577e-05
4.185883200819739e-07
4.290817112087237e-05
5.218689688781766e-07
4.298515012820073e-05
6.149979674304088e-07
4.30691242068253e-05
6.983653407160353e-07
4.315858691336965e-05
7.720624789697389e-07
4.325223391607029e-05
8.365790271298508e-07
4.334895819367599e-05
8.920655600452129e-07
4.344782739171168e-05
9.391026208175084e-07
4.354802183498734e-05
9.778733183366079e-07
4.364878676049513e-05
1.008847057986604e-06
4.374943223200499e-05
1.032170342980492e-06
4.384931922595764e-05
1.048249872859114e-06
4.394788124961637e-05
1.05733276382661e-06
4.404460492598013e-05
1.059834954316152e-06
4.413906922319585e-05
1.056205135064504e-06
4.423091311802536e-05
1.046895008122983e-06
4.431985635993286e-05
1.032595108917941e-06
4.440564060285182e-05
1.0137506372924e-06
4.448810069504646e-05
9.913048474997743e-07
4.456710571760403e-05
9.656676070762273e-07
4.464263282120816e-05
9.379951346084168e-07
4.471468126563756e-05
9.085311672592127e-07
4.478336728879924e-05
8.785421269464624e-07
4.484879798478166e-05
8.479694473417218e-07
4.491119120115454e-05
8.181106288646102e-07
4.497072480053187e-05
7.885362189907198e-07
4.502765060406716e-05
7.605402888501642e-07
4.508214124172782e-05
7.333187180438069e-07
4.513450313177895e-05
7.082176130256172e-07
4.518494232344925e-05
6.841615359667226e-07
4.523375594979771e-05
6.625209769791762e-07
4.528101734562144e-05
6.420108139956233e-07
4.532695980403558e-05
6.240440756496482e-07
4.537158953919174e-05
6.072994585059638e-07
4.541506609799369e-05
5.932375424332683e-07
4.545727070942147e-05
5.804219133537005e-07
5.701948511302364e-07
4.549842300688866e-05
4.271093543046515e-05
5.370362149251742e-08
4.273330987996248e-05
1.633815608242586e-07
4.276959272570545e-05
2.696807742270324e-07
4.281808174833419e-05
3.700991712394449e-07
4.287681716020462e-05
4.631334154415172e-07
4.29439816626412e-05
5.478333215177587e-07
4.30180614652148e-05
6.242854082190785e-07
4.309773719541489e-05
6.923866496238824e-07
4.318183454962798e-05
7.524816230869661e-07
4.326930764292117e-05
8.04592485691877e-07
4.335924559886143e-05
8.491647726510437e-07
4.345084011009548e-05
8.86279023896466e-07
4.354336074111797e-05
9.163267726428454e-07
4.363614701028233e-05
9.393845672937383e-07
4.372859967171987e-05
9.557978705430402e-07
4.382019300047762e-05
9.657402758496344e-07
4.391045942853988e-05
9.695695624256678e-07
4.399901388738437e-05
9.676519190520242e-07
4.408552387146757e-05
9.603864816335488e-07
4.416973404786071e-05
9.483866095132107e-07
4.425141584309805e-05
9.320707393009332e-07
4.433042045891147e-05
9.123023458240322e-07
4.440662194979526e-05
8.894684395176317e-07
4.447998845427242e-05
8.646311501621537e-07
4.455049282357268e-05
8.380294973864827e-07
4.461821248772276e-05
8.108253191364612e-07
4.468319864296198e-05
7.82986277562533e-07
4.474561347591509e-05
7.556988771329064e-07
4.48055616013805e-05
7.285912313089453e-07
4.486325858594342e-05
7.02846453366398e-07
4.491882052876247e-05
6.777598836835091e-07
4.497249993679188e-05
6.545412137983975e-07
4.502441617859808e-05
6.322481363849784e-07
4.507481452885104e-05
6.12125226724003e-07
4.512374096966625e-05
5.930866455742244e-07
4.517138569322937e-05
5.764012006231349e-07
4.521771934915403e-05
5.609671186961374e-07
4.526287303456967e-05
5.480845177019859e-07
4.530670107766336e-05
5.365937414280449e-07
5.275374599159084e-07
4.534935748752982e-05
4.270978104088086e-05
4.732341304395461e-08
4.272870002205646e-05
1.444625365309262e-07
4.275954782367144e-05
2.388329093807244e-07
4.280117157194235e-05
3.284753484421751e-07
4.285216218757372e-05
4.121427257135874e-07
4.291109432900454e-05
4.889011206498307e-07
4.297670926031827e-05
5.586704486417063e-07
4.304786835793657e-05
6.212275732873421e-07
4.312354264970006e-05
6.768074219951277e-07
4.32027707890362e-05
7.253645274400256e-07
4.328469604814639e-05
7.672398066873244e-07
4.336853753407223e-05
8.024379649305362e-07
4.345360002561756e-05
8.312648635535937e-07
4.353925510847263e-05
8.537302432114913e-07
4.362494656493313e-05
8.701073687295194e-07
4.371018731610722e-05
8.805006931150639e-07
4.379455246210611e-05
8.852058144019787e-07
4.387769031809764e-05
8.845157035827639e-07
4.395929762599573e-05
8.787810667706809e-07
4.403914371968989e-05
8.685426678357216e-07
4.411702571641699e-05
8.541911562238261e-07
4.419281154287589e-05
8.365191932515047e-07
4.426638144068934e-05
8.159014698874488e-07
4.433769613286363e-05
7.93319629990223e-07
4.440670934301294e-05
7.690196877484751e-07
4.447346740187552e-05
7.44070869026989e-07
4.453798219644211e-05
7.184752746859767e-07
4.460037101776238e-05
6.933139997501293e-07
4.466068668412617e-05
6.682796249648372e-07
4.471909882313599e-05
6.44438448373768e-07
4.477567601295967e-05
6.211868535256096e-07
4.483061939579436e-05
5.996019609068485e-07
4.488399577657613e-05
5.788757925133585e-07
4.493599958818125e-05
5.601252867911951e-07
4.498664340321567e-05
5.424464543326289e-07
4.503606818833063e-05
5.269796967836347e-07
4.508420839782959e-05
5.128297396372455e-07
4.513115288640235e-05
5.011422844823325e-07
4.51767319487981e-05
4.910162133183252e-07
4.831891660034116e-07
4.522108098698318e-05
4.270888322582657e-05
4.184102758245553e-08
4.272511690755914e-05
1.282288328826116e-07
4.275169149651378e-05
2.122582924075391e-07
4.278779294457778e-05
2.923738756442737e-07
4.283240487901537e-05
3.675307822327303e-07
4.288440534119758e-05
4.369006803070145e-07
4.294276206269398e-05
5.003137973713282e-07
4.30064960955458e-05
5.57493678736134e-07
4.307473479574021e-05
6.085689494717028e-07
4.314661041362801e-05
6.534892490991554e-07
4.322134182867088e-05
6.925088663914341e-07
4.329817810436936e-05
7.256023228236173e-07
4.337647232730045e-05
7.529714564723247e-07
4.345562888839249e-05
7.745747029738833e-07
4.353514095155962e-05
7.90596553003897e-07
4.361455834235783e-05
8.010847961727875e-07
4.36934998050074e-05
8.062661096476738e-07
4.377164347716595e-05
8.06374068281101e-07
4.384871421012115e-05
8.017126615028872e-07
4.392450975406487e-05
7.927497507668929e-07
4.399884762582945e-05
7.798562150270011e-07
4.407161510203902e-05
7.637549516588261e-07
4.414269981204771e-05
7.448202945787648e-07
4.421205960328783e-05
7.239636650229095e-07
4.427963284703225e-05
7.014505487591981e-07
4.434544257256944e-05
6.782655089474358e-07
4.440947047006257e-05
6.544519807141514e-07
4.44717983485356e-05
6.309909354281379e-07
4.453243857629042e-05
6.076443895525063e-07
4.459152140704756e-05
5.853607503341369e-07
4.464907409796882e-05
5.636393921407609e-07
4.470525816021062e-05
5.434231749146855e-07
4.476009249652993e-05
5.240467216917405e-07
4.481372877458883e-05
5.064941970365457e-07
4.486614040327269e-05
4.900398598104953e-07
4.491741478125099e-05
4.757101091298757e-07
4.496745080577906e-05
4.627981565774671e-07
4.501629136345182e-05
4.523056952926944e-07
4.506373190347924e-05
4.435790277584714e-07
4.370670073304146e-07
4.510985670625327e-05
4.270816750000012e-05
3.707437343292094e-08
4.272225877650878e-05
1.141375537743993e-07
4.274540192349038e-05
1.891151502347277e-07
4.277699355037006e-05
2.607822706644614e-07
4.281629671512345e-05
3.282276695600546e-07
4.286242555019089e-05
3.90771943569011e-07
4.291454419027515e-05
4.481953205326494e-07
4.297179599060299e-05
5.002421275794876e-07
4.303345952842159e-05
5.469057695414345e-07
4.309877484446233e-05
5.881744238095783e-07
4.316705586775044e-05
6.242284918221223e-07
4.323757438836092e-05
6.550846343815082e-07
4.330973206346782e-05
6.808148223756561e-07
4.338296502757932e-05
7.013430134252147e-07
4.345682155564885e-05
7.167415565992343e-07
4.353088701869213e-05
7.270211436930237e-07
4.360482068301457e-05
7.323345543802935e-07
4.367833992712688e-05
7.328572486113482e-07
4.375119930853566e-05
7.288560336074418e-07
4.382322769801697e-05
7.207244540434652e-07
4.389424422286214e-05
7.08843128442814e-07
4.396416746232972e-05
6.938354980832296e-07
4.403287937953221e-05
6.76112508807147e-07
4.410035340606207e-05
6.564941089410124e-07
4.416651950059382e-05
6.352892527867805e-07
4.423139338094407e-05
6.133967400045374e-07
4.429492423189388e-05
5.909265344843724e-07
4.43571677928228e-05
5.687530487389306e-07
4.441809825273962e-05
5.467198452844645e-07
4.447781882690832e-05
5.256463007372136e-07
4.453632550479245e-05
5.051390104193746e-07
4.459374652516072e-05
4.86008579536548e-07
4.465006439647563e-05
4.677353546895895e-07
4.470538743860141e-05
4.511776810541517e-07
4.475963688749034e-05
4.35796891034817e-07
4.481285073656435e-05
4.225026133863791e-07
4.486489014606084e-05
4.107648768411858e-07
4.491574571391554e-05
4.01455917047811e-07
4.49651772208653e-05
3.941528250571324e-07
3.890255097192552e-07
4.501322343730238e-05
4.270758397374535e-05
3.28912525090473e-08
4.271993281745693e-05
1.017887253494054e-07
4.274026222767384e-05
1.687857744707903e-07
4.276812474613064e-05
2.329198161914265e-07
4.280296589845679e-05
2.933866245823706e-07
4.284408664851451e-05
3.496513613464369e-07
4.289081331092621e-05
4.014689063068298e-07
4.294243266307045e-05
4.486231263949937e-07
4.299829488025033e-05
4.910440304090832e-07
4.305772810252023e-05
5.287418325479306e-07
4.312015845554942e-05
5.617989496814555e-07
4.318496111965597e-05
5.902829884686578e-07
4.32515607284185e-05
6.142164664834458e-07
4.331940282180241e-05
6.335024343593691e-07
4.338807471311935e-05
6.480714665982102e-07
4.345719946159442e-05
6.57898507336614e-07
4.352649636783647e-05
6.630400926160487e-07
4.359572517381732e-05
6.636312381719031e-07
4.366467283259673e-05
6.59911536938086e-07
4.373318254760463e-05
6.52218279534114e-07
4.380107879384088e-05
6.409508090074064e-07
4.386830666172788e-05
6.26611947082379e-07
4.393472558732177e-05
6.096982896532755e-07
4.400036371221887e-05
5.908610753985009e-07
4.40651318740599e-05
5.705265583194396e-07
4.412906206083302e-05
5.49472383869383e-07
4.419207542189141e-05
5.279193509364425e-07
4.425422106029988e-05
5.066139148561677e-07
4.431543587552786e-05
4.855118385468204e-07
4.43758057204188e-05
4.652835420514212e-07
4.443528917089104e-05
4.456628942810049e-07
4.449399213003787e-05
4.27313169255624e-07
4.455185717091661e-05
4.098780386430315e-07
4.4608939897198e-05
3.941028102598851e-07
4.466512395323509e-05
3.796207667597961e-07
4.472039773540439e-05
3.672367725707204e-07
4.477458042770736e-05
3.565900522733916e-07
4.482760345947614e-05
3.484405739594589e-07
4.48791809540792e-05
3.425827125911065e-07
3.389217281812179e-07
4.492929168505605e-05
4.270709935509933e-05
2.919275408756619e-08
4.271800748984378e-05
9.088062064792203e-08
4.273598971664355e-05
1.508036074035052e-07
4.276072645931838e-05
2.081831736377787e-07
4.279178472384079e-05
2.623285151955747e-07
4.282861362182489e-05
3.128226916314713e-07
4.287065174742391e-05
3.594311032888683e-07
4.291732844238818e-05
4.019468720943049e-07
4.296806652503583e-05
4.403065324829106e-07
4.302228316444583e-05
4.745259496119959e-07
4.307943245600777e-05
5.046506151772413e-07
4.313899613083843e-05
5.30720500638059e-07
4.320048436101112e-05
5.527296827094294e-07
4.326340174651187e-05
5.705867834463315e-07
4.332733158215329e-05
5.841436813470658e-07
4.339194470651075e-05
5.932877749565348e-07
4.345698185419564e-05
5.98005701937214e-07
4.352222418154683e-05
5.983920533035908e-07
4.358749297460312e-05
5.946462889796679e-07
4.365264821324799e-05
5.870670019178143e-07
4.371756953487211e-05
5.760338736032974e-07
4.378218405946489e-05
5.620022389620444e-07
4.384641405482353e-05
5.454735418635096e-07
4.391027526200295e-05
5.270055435603101e-07
4.397366309681564e-05
5.071448195323488e-07
4.403664039312035e-05
4.865015937798988e-07
4.409911382017383e-05
4.654528267925719e-07
4.416114843816496e-05
4.44586580676685e-07
4.422265416331524e-05
4.240137604639992e-07
4.428370850139586e-05
4.042371951383934e-07
4.434422890490463e-05
3.851508055318784e-07
4.440428527189809e-05
3.672654184110879e-07
4.446377508029302e-05
3.503971229688748e-07
4.452271851440086e-05
3.351685162750829e-07
4.45809678618409e-05
3.213807707225912e-07
4.463846004569651e-05
3.09754104607764e-07
4.469496906446807e-05
3.0009065172706e-07
4.475035892261681e-05
2.930603528990813e-07
4.48042881454389e-05
2.886630286050323e-07
2.86550908385158e-07
4.485666828271568e-05
4.27066923270956e-05
2.5901288822532e-08
4.271638634065007e-05
8.118664926755755e-08
4.273238867396767e-05
1.348013539216619e-07
4.275447035058583e-05
1.861016259984052e-07
4.27822843384173e-05
2.345147210011382e-07
4.281538614504503e-05
2.797211624893905e-07
4.285333523246096e-05
3.214823996540999e-07
4.28956578566352e-05
3.596247633142904e-07
4.294185061765211e-05
3.941144461921397e-07
4.299140508482454e-05
4.249723459367997e-07
4.304382809996819e-05
4.522286831174774e-07
4.309865432919566e-05
4.758956055352773e-07
4.315545112652098e-05
4.959345019786802e-07
4.321381060120273e-05
5.122292387593548e-07
4.327335697648305e-05
5.245995790341387e-07
4.333377599242168e-05
5.328714027240115e-07
4.339482788050113e-05
5.369568534717102e-07
4.345632913020429e-05
5.368942612551054e-07
4.351813392001193e-05
5.328453933543279e-07
4.358012757172349e-05
5.250776954286709e-07
4.364222143320334e-05
5.139448186561915e-07
4.37043549064441e-05
4.998740394485853e-07
4.376648171300379e-05
4.833524777471201e-07
4.382858054281575e-05
4.649129225130398e-07