/*--------------------------------*- C++ -*----------------------------------*\
| =========                 |                                                 |
| \\      /  F ield         | OpenFOAM: The Open Source CFD Toolbox           |
|  \\    /   O peration     | Version:  2206                                  |
|   \\  /    A nd           | Website:  www.openfoam.com                      |
|    \\/     M anipulation  |                                                 |
\*---------------------------------------------------------------------------*/
FoamFile
{
    version     2.0;
    format      ascii;
    arch        "LSB;label=32;scalar=64";
    class       pointVectorField;
    location    "3";
    object      pointDisplacement;
}
// * * * * * * * * * * * * * * * * * * * * * * * * * * * * * * * * * * * * * //

dimensions      [0 1 0 0 0 0 0];

internalField   nonuniform List<vector> 
36854
(
(0 0 0)
(0 0 0)
(0 0 0)
(0 0 0)
(0 0 0)
(0 0 0)
(0 0 0)
(0 0 0)
(0 0 0)
(0 0 0)
(0 0 0)
(0 0 0)
(0 0 0)
(0 0 0)
(0 0 0)
(0 0 0)
(0 0 0)
(0 0 0)
(0 0 0)
(0 0 0)
(0 0 0)
(0 0 0)
(0 0 0)
(0 0 0)
(0 0 0)
(0 0 0)
(0 0 0)
(0 0 0)
(0 0 0)
(0 0 0)
(0 0 0)
(0 0 0)
(0 0 0)
(0 0 0)
(0 0 0)
(0 0 0)
(0 0 0)
(0 0 0)
(0 0 0)
(0 0 0)
(0 0 0)
(0 0 0)
(0 1.914740716326284e-09 0)
(0 3.805707011127263e-09 0)
(0 5.673316403886567e-09 0)
(0 7.51796455984146e-09 0)
(0 9.339999357048051e-09 0)
(0 1.113971256417714e-08 0)
(0 1.291732479954469e-08 0)
(0 1.467296974620055e-08 0)
(0 1.640667857802616e-08 0)
(0 1.81183649961949e-08 0)
(0 1.980781108681277e-08 0)
(0 2.147465414774493e-08 0)
(0 2.311837461768537e-08 0)
(0 2.473828524566134e-08 0)
(0 2.633352165325973e-08 0)
(0 2.790303445973207e-08 0)
(0 2.944558315883527e-08 0)
(0 3.095973195371168e-08 0)
(0 3.244384777053295e-08 0)
(0 3.389610068131769e-08 0)
(0 3.531446696960984e-08 0)
(0 3.66967350679325e-08 0)
(0 3.804051458153298e-08 0)
(0 3.93432485875894e-08 0)
(0 4.060222936175413e-08 0)
(0 4.181461763422859e-08 0)
(0 4.297746541583672e-08 0)
(0 4.408774236216263e-08 0)
(0 4.514236556348845e-08 0)
(0 4.613823256458967e-08 0)
(0 4.707225733851025e-08 0)
(0 4.794140887303864e-08 0)
(0 4.874275199457396e-08 0)
(0 4.947349007866752e-08 0)
(0 5.013100942585865e-08 0)
(0 5.071292539349946e-08 0)
(0 5.121713098472722e-08 0)
(0 5.164184956499373e-08 0)
(0 5.198569235454048e-08 0)
(0 5.216496020023297e-08 0)
(0 0 0)
(0 3.805652982302106e-09 0)
(0 7.562961018150524e-09 0)
(0 1.127269610007478e-08 0)
(0 1.493562462687069e-08 0)
(0 1.855243147936855e-08 0)
(0 2.212369539441282e-08 0)
(0 2.564985690291372e-08 0)
(0 2.913118657161515e-08 0)
(0 3.256775428169528e-08 0)
(0 3.595939997581477e-08 0)
(0 3.93057061656596e-08 0)
(0 4.260597244137816e-08 0)
(0 4.585919221921944e-08 0)
(0 4.906403198180011e-08 0)
(0 5.221881329515278e-08 0)
(0 5.532149792141619e-08 0)
(0 5.836967638130594e-08 0)
(0 6.136056035287487e-08 0)
(0 6.429097931937181e-08 0)
(0 6.715738189612706e-08 0)
(0 6.995584227124137e-08 0)
(0 7.268207218438025e-08 0)
(0 7.53314388392926e-08 0)
(0 7.789898909631158e-08 0)
(0 8.037948021924076e-08 0)
(0 8.27674173558902e-08 0)
(0 8.505709781375384e-08 0)
(0 8.724266205442976e-08 0)
(0 8.931815117741199e-08 0)
(0 9.127757050404418e-08 0)
(0 9.311495871819895e-08 0)
(0 9.482446189022036e-08 0)
(0 9.640041163289825e-08 0)
(0 9.783740665734545e-08 0)
(0 9.913039718925808e-08 0)
(0 1.002747722175029e-07 0)
(0 1.012664506904813e-07 0)
(0 1.021019803499376e-07 0)
(0 1.027786512440921e-07 0)
(0 1.031352871376648e-07 0)
(0 0 0)
(0 5.67306457802709e-09 0)
(0 1.127235609382083e-08 0)
(0 1.679900469620383e-08 0)
(0 2.22541502073206e-08 0)
(0 2.763882212457237e-08 0)
(0 3.295389751824664e-08 0)
(0 3.820005143116993e-08 0)
(0 4.33777091801655e-08 0)
(0 4.848700087499373e-08 0)
(0 5.352771845803798e-08 0)
(0 5.849927554626832e-08 0)
(0 6.340067035860068e-08 0)
(0 6.823045203569237e-08 0)
(0 7.29866906985633e-08 0)
(0 7.766695164075452e-08 0)
(0 8.22682741007483e-08 0)
(0 8.678715511257012e-08 0)
(0 9.121953897870906e-08 0)
(0 9.55608129465982e-08 0)
(0 9.980580969367445e-08 0)
(0 1.039488172321863e-07 0)
(0 1.079835968291455e-07 0)
(0 1.119034094950644e-07 0)
(0 1.157010515238402e-07 0)
(0 1.1936889946271e-07 0)
(0 1.228989647543828e-07 0)
(0 1.262829581239609e-07 0)
(0 1.295123635843563e-07 0)
(0 1.325785217121494e-07 0)
(0 1.354727216118022e-07 0)
(0 1.381863007555026e-07 0)
(0 1.407107516809553e-07 0)
(0 1.430378343814291e-07 0)
(0 1.451596931763804e-07 0)
(0 1.47068976974518e-07 0)
(0 1.487589622403922e-07 0)
(0 1.502236788202612e-07 0)
(0 1.514580403163836e-07 0)
(0 1.524579785040742e-07 0)
(0 1.529873472004243e-07 0)
(0 0 0)
(0 7.51728422422159e-09 0)
(0 1.493448645054654e-08 0)
(0 2.225312630221289e-08 0)
(0 2.947474341061372e-08 0)
(0 3.660073830661848e-08 0)
(0 4.363231407721806e-08 0)
(0 5.057040977701445e-08 0)
(0 5.741563723073652e-08 0)
(0 6.416822129925944e-08 0)
(0 7.08279437933602e-08 0)
(0 7.739409128003221e-08 0)
(0 8.386540707803145e-08 0)
(0 9.024004779607303e-08 0)
(0 9.651554483079878e-08 0)
(0 1.026887713101986e-07 0)
(0 1.087559150380771e-07 0)
(0 1.14712458062314e-07 0)
(0 1.205531635496223e-07 0)
(0 1.262720706974471e-07 0)
(0 1.318624984444707e-07 0)
(0 1.373170587495185e-07 0)
(0 1.426276801890734e-07 0)
(0 1.477856425708878e-07 0)
(0 1.527816231706989e-07 0)
(0 1.576057550672273e-07 0)
(0 1.622476978756005e-07 0)
(0 1.66696720961496e-07 0)
(0 1.709417989611423e-07 0)
(0 1.749717191431296e-07 0)
(0 1.787751998385803e-07 0)
(0 1.823410188536363e-07 0)
(0 1.856581504853223e-07 0)
(0 1.887159095177625e-07 0)
(0 1.915041004158824e-07 0)
(0 1.940131698972639e-07 0)
(0 1.96234361181081e-07 0)
(0 1.981598684610381e-07 0)
(0 1.997829902582165e-07 0)
(0 2.010982732538283e-07 0)
(0 2.017967922648902e-07 0)
(0 0 0)
(0 9.338574855080425e-09 0)
(0 1.854986890172664e-08 0)
(0 2.763584105416219e-08 0)
(0 3.659847594147508e-08 0)
(0 4.543958871260094e-08 0)
(0 5.416075167016205e-08 0)
(0 6.276321157462727e-08 0)
(0 7.12478116190254e-08 0)
(0 7.961491805550084e-08 0)
(0 8.786435158886731e-08 0)
(0 9.599532375084693e-08 0)
(0 1.040063785546616e-07 0)
(0 1.118953398142657e-07 0)
(0 1.196592645994153e-07 0)
(0 1.272944033865228e-07 0)
(0 1.347961675532519e-07 0)
(0 1.421591049482617e-07 0)
(0 1.493768843417318e-07 0)
(0 1.564422896219555e-07 0)
(0 1.633472246424647e-07 0)
(0 1.700827296365171e-07 0)
(0 1.766390100947839e-07 0)
(0 1.83005478941328e-07 0)
(0 1.8917081273659e-07 0)
(0 1.951230224794198e-07 0)
(0 2.008495393703128e-07 0)
(0 2.063373156346723e-07 0)
(0 2.115729401912908e-07 0)
(0 2.165427685946916e-07 0)
(0 2.212330662927727e-07 0)
(0 2.256301638408246e-07 0)
(0 2.297206223220142e-07 0)
(0 2.334914068691943e-07 0)
(0 2.369300658903001e-07 0)
(0 2.400249133886289e-07 0)
(0 2.42765211629982e-07 0)
(0 2.451413512431338e-07 0)
(0 2.471450252853004e-07 0)
(0 2.487693846416435e-07 0)
(0 2.496345580454597e-07 0)
(0 0 0)
(0 1.113714510821703e-08 0)
(0 2.211891787484644e-08 0)
(0 3.294778249795612e-08 0)
(0 4.362623011328911e-08 0)
(0 5.415654959212079e-08 0)
(0 6.454074003553913e-08 0)
(0 7.478041286437121e-08 0)
(0 8.487669971429353e-08 0)
(0 9.48301660921889e-08 0)
(0 1.046407308735799e-07 0)
(0 1.143075918330562e-07 0)
(0 1.238291575063147e-07 0)
(0 1.332029857885823e-07 0)
(0 1.424257297816216e-07 0)
(0 1.514930915095465e-07 0)
(0 1.603997842297445e-07 0)
(0 1.691395041654767e-07 0)
(0 1.777049125762407e-07 0)
(0 1.860876291548931e-07 0)
(0 1.942782377901778e-07 0)
(0 2.022663057524197e-07 0)
(0 2.100404173410353e-07 0)
(0 2.175882229674698e-07 0)
(0 2.248965045289523e-07 0)
(0 2.319512577509329e-07 0)
(0 2.387377919349749e-07 0)
(0 2.452408472428157e-07 0)
(0 2.514447292785789e-07 0)
(0 2.573334603066947e-07 0)
(0 2.628909459752796e-07 0)
(0 2.68101155921463e-07 0)
(0 2.729483161393995e-07 0)
(0 2.774171105196986e-07 0)
(0 2.814928885459792e-07 0)
(0 2.851618757759956e-07 0)
(0 2.884113834299477e-07 0)
(0 2.912300130759982e-07 0)
(0 2.936078517598609e-07 0)
(0 2.95536642832657e-07 0)
(0 2.965670231941417e-07 0)
(0 0 0)
(0 1.291313408734964e-08 0)
(0 2.56419129627279e-08 0)
(0 3.818938741709464e-08 0)
(0 5.055863150698965e-08 0)
(0 6.275248113178742e-08 0)
(0 7.477343303782897e-08 0)
(0 8.662353253279232e-08 0)
(0 9.830426806067123e-08 0)
(0 1.098164725789718e-07 0)
(0 1.211602317930238e-07 0)
(0 1.323347994200895e-07 0)
(0 1.433385197764484e-07 0)
(0 1.541687581039142e-07 0)
(0 1.648218391778792e-07 0)
(0 1.752929948653663e-07 0)
(0 1.855763214257531e-07 0)
(0 1.956647474646982e-07 0)
(0 2.055500135580686e-07 0)
(0 2.152226646509496e-07 0)
(0 2.246720563997834e-07 0)
(0 2.338863766550632e-07 0)
(0 2.428526832689348e-07 0)
(0 2.515569593473742e-07 0)
(0 2.599841869414235e-07 0)
(0 2.681184399783387e-07 0)
(0 2.759429969653985e-07 0)
(0 2.834404736533741e-07 0)
(0 2.905929754242068e-07 0)
(0 2.973822686743402e-07 0)
(0 3.037899699135722e-07 0)
(0 3.09797750707918e-07 0)
(0 3.153875559886205e-07 0)
(0 3.205418326575469e-07 0)
(0 3.252437648722253e-07 0)
(0 3.294775119169667e-07 0)
(0 3.332284441683807e-07 0)
(0 3.364833723070718e-07 0)
(0 3.392307644177931e-07 0)
(0 3.414609348385438e-07 0)
(0 3.426561102628344e-07 0)
(0 0 0)
(0 1.466659537234584e-08 0)
(0 2.91189667596249e-08 0)
(0 4.336084753163028e-08 0)
(0 5.73959849774187e-08 0)
(0 7.122784844277063e-08 0)
(0 8.485951538676776e-08 0)
(0 9.829354552513542e-08 0)
(0 1.115318628450271e-07 0)
(0 1.245756454052753e-07 0)
(0 1.37425222946921e-07 0)
(0 1.500799824625061e-07 0)
(0 1.625382820047985e-07 0)
(0 1.747973731539735e-07 0)
(0 1.868533327048329e-07 0)
(0 1.98701004279932e-07 0)
(0 2.103339507171283e-07 0)
(0 2.217444182166212e-07 0)
(0 2.329233133574259e-07 0)
(0 2.438601941995566e-07 0)
(0 2.545432767679675e-07 0)
(0 2.649594582582731e-07 0)
(0 2.750943583023188e-07 0)
(0 2.84932379573007e-07 0)
(0 2.944567888815631e-07 0)
(0 3.036498197165119e-07 0)
(0 3.124927968835882e-07 0)
(0 3.209662835241105e-07 0)
(0 3.290502503148264e-07 0)
(0 3.367242660894926e-07 0)
(0 3.439677084831233e-07 0)
(0 3.507599925036256e-07 0)
(0 3.570808142102823e-07 0)
(0 3.629104059594416e-07 0)
(0 3.682297990050178e-07 0)
(0 3.730210886560245e-07 0)
(0 3.772676967296431e-07 0)
(0 3.809546257011403e-07 0)
(0 3.840686986053989e-07 0)
(0 3.865987672545068e-07 0)
(0 3.879593682010858e-07 0)
(0 0 0)
(0 1.639748123072843e-08 0)
(0 3.254999371373424e-08 0)
(0 4.846206338191841e-08 0)
(0 6.413821407692887e-08 0)
(0 7.958264713916449e-08 0)
(0 9.479911504086428e-08 0)
(0 1.097907827659546e-07 0)
(0 1.245600980376713e-07 0)
(0 1.391086702599874e-07 0)
(0 1.534371581547954e-07 0)
(0 1.675451662091255e-07 0)
(0 1.814311501909205e-07 0)
(0 1.950923321449162e-07 0)
(0 2.08524625439294e-07 0)
(0 2.21722570596044e-07 0)
(0 2.346792827997578e-07 0)
(0 2.47386412136225e-07 0)
(0 2.598341177579145e-07 0)
(0 2.720110573009589e-07 0)
(0 2.839043929789705e-07 0)
(0 2.954998158427482e-07 0)
(0 3.067815897101914e-07 0)
(0 3.17732616224945e-07 0)
(0 3.283345223823252e-07 0)
(0 3.385677716540883e-07 0)
(0 3.484117995380612e-07 0)
(0 3.57845173945885e-07 0)
(0 3.668457803179056e-07 0)
(0 3.75391030720816e-07 0)
(0 3.834580954514759e-07 0)
(0 3.910241548598549e-07 0)
(0 3.98066668246627e-07 0)
(0 4.045636558289739e-07 0)
(0 4.104939889538699e-07 0)
(0 4.158376830307205e-07 0)
(0 4.205761871150097e-07 0)
(0 4.246926637418173e-07 0)
(0 4.281722523896037e-07 0)
(0 4.310022977371222e-07 0)
(0 4.325300160363653e-07 0)
(0 0 0)
(0 1.810562742986804e-08 0)
(0 3.59346804273934e-08 0)
(0 5.349260069983191e-08 0)
(0 7.078480407954286e-08 0)
(0 8.781633362093912e-08 0)
(0 1.04591721373019e-07 0)
(0 1.211148378399018e-07 0)
(0 1.373887512268914e-07 0)
(0 1.534155962691598e-07 0)
(0 1.691964525666423e-07 0)
(0 1.847312324926591e-07 0)
(0 2.000185789013276e-07 0)
(0 2.150557730269489e-07 0)
(0 2.298386531444581e-07 0)
(0 2.443615447407255e-07 0)
(0 2.586172031283334e-07 0)
(0 2.725967696118503e-07 0)
(0 2.86289742485676e-07 0)
(0 2.996839642948312e-07 0)
(0 3.127656269164634e-07 0)
(0 3.255192961093132e-07 0)
(0 3.379279572180523e-07 0)
(0 3.499730836947389e-07 0)
(0 3.616347299948781e-07 0)
(0 3.728916502045791e-07 0)
(0 3.837214434426758e-07 0)
(0 3.941007266444825e-07 0)
(0 4.040053347636308e-07 0)
(0 4.13410547723673e-07 0)
(0 4.222913426199443e-07 0)
(0 4.306226687347708e-07 0)
(0 4.383797419200497e-07 0)
(0 4.455383538704471e-07 0)
(0 4.520751908233026e-07 0)
(0 4.579681553564373e-07 0)
(0 4.631966842990661e-07 0)
(0 4.677420553984562e-07 0)
(0 4.715876752497346e-07 0)
(0 4.74719328086725e-07 0)
(0 4.764169410556978e-07 0)
(0 0 0)
(0 1.979073886109157e-08 0)
(0 3.927245769765143e-08 0)
(0 5.845164954973621e-08 0)
(0 7.733474885129847e-08 0)
(0 9.592776027593635e-08 0)
(0 1.142361092908215e-07 0)
(0 1.322644806058552e-07 0)
(0 1.500166672960389e-07 0)
(0 1.674954303059386e-07 0)
(0 1.847023681857617e-07 0)
(0 2.016377970664309e-07 0)
(0 2.183006410531878e-07 0)
(0 2.346883334011241e-07 0)
(0 2.507967290291594e-07 0)
(0 2.666200291286609e-07 0)
(0 2.821507188258091e-07 0)
(0 2.973795190586419e-07 0)
(0 3.122953540247808e-07 0)
(0 3.268853357367701e-07 0)
(0 3.411347673793206e-07 0)
(0 3.550271672847759e-07 0)
(0 3.685443154156163e-07 0)
(0 3.81666324249177e-07 0)
(0 3.943717358812233e-07 0)
(0 4.066376469815794e-07 0)
(0 4.184398629264024e-07 0)
(0 4.297530819794234e-07 0)
(0 4.405511097841942e-07 0)
(0 4.508071036539819e-07 0)
(0 4.604938452091351e-07 0)
(0 4.6958403883182e-07 0)
(0 4.780506322213242e-07 0)
(0 4.858671540966741e-07 0)
(0 4.930080628859914e-07 0)
(0 4.994490991634081e-07 0)
(0 5.051676337601081e-07 0)
(0 5.101430030005656e-07 0)
(0 5.143568224184135e-07 0)
(0 5.1779325678223e-07 0)
(0 5.196646496002273e-07 0)
(0 0 0)
(0 2.145237612454277e-08 0)
(0 4.256247454004758e-08 0)
(0 6.333798652425188e-08 0)
(0 8.378650186577237e-08 0)
(0 1.039151159032826e-07 0)
(0 1.237302696132406e-07 0)
(0 1.432375780410825e-07 0)
(0 1.624416702278391e-07 0)
(0 1.813460402358213e-07 0)
(0 1.999529090340836e-07 0)
(0 2.182630971778253e-07 0)
(0 2.36275908403603e-07 0)
(0 2.539890244623305e-07 0)
(0 2.713984117226821e-07 0)
(0 2.884982402966047e-07 0)
(0 3.052808166634519e-07 0)
(0 3.217365309961018e-07 0)
(0 3.37853820616136e-07 0)
(0 3.536191512187108e-07 0)
(0 3.690170177017488e-07 0)
(0 3.84029966596271e-07 0)
(0 3.986386422097138e-07 0)
(0 4.128218586432063e-07 0)
(0 4.265566998050331e-07 0)
(0 4.398186493913052e-07 0)
(0 4.525817525150549e-07 0)
(0 4.648188102109217e-07 0)
(0 4.765016074019322e-07 0)
(0 4.876011740723244e-07 0)
(0 4.98088078342376e-07 0)
(0 5.079327489012301e-07 0)
(0 5.171058228574622e-07 0)
(0 5.255785135771691e-07 0)
(0 5.333229915880119e-07 0)
(0 5.403127702574984e-07 0)
(0 5.46523086854497e-07 0)
(0 5.51931268939888e-07 0)
(0 5.565170759211041e-07 0)
(0 5.602629915630882e-07 0)
(0 5.623131716843905e-07 0)
(0 0 0)
(0 2.308994320897916e-08 0)
(0 4.580357443392392e-08 0)
(0 6.814994030463335e-08 0)
(0 9.01379317217157e-08 0)
(0 1.117758717467778e-07 0)
(0 1.330713461135872e-07 0)
(0 1.540310227379772e-07 0)
(0 1.746604834621737e-07 0)
(0 1.949640675173786e-07 0)
(0 2.149447263633887e-07 0)
(0 2.346038897540335e-07 0)
(0 2.539413430809711e-07 0)
(0 2.729551162648109e-07 0)
(0 2.916413846906178e-07 0)
(0 3.099943829233773e-07 0)
(0 3.280063321861662e-07 0)
(0 3.456673828368198e-07 0)
(0 3.629655733336032e-07 0)
(0 3.798868074304642e-07 0)
(0 3.964148515789569e-07 0)
(0 4.125313547245531e-07 0)
(0 4.282158928535809e-07 0)
(0 4.434460407527386e-07 0)
(0 4.581974734606939e-07 0)
(0 4.724440997909602e-07 0)
(0 4.861582300539062e-07 0)
(0 4.993107796687453e-07 0)
(0 5.118715097007095e-07 0)
(0 5.238093044574741e-07 0)
(0 5.350924851174997e-07 0)
(0 5.456891569456162e-07 0)
(0 5.555675860089768e-07 0)
(0 5.646965995045661e-07 0)
(0 5.730460019525886e-07 0)
(0 5.805869977458413e-07 0)
(0 5.87292609064e-07 0)
(0 5.93138077194794e-07 0)
(0 5.981012351001905e-07 0)
(0 6.021628245973471e-07 0)
(0 6.043979215635488e-07 0)
(0 0 0)
(0 2.470267640600059e-08 0)
(0 4.89942740460669e-08 0)
(0 7.288536093547653e-08 0)
(0 9.638628258419985e-08 0)
(0 1.195067336147739e-07 0)
(0 1.422555797474702e-07 0)
(0 1.646406696034088e-07 0)
(0 1.866686593785659e-07 0)
(0 2.083448497407923e-07 0)
(0 2.296730344956292e-07 0)
(0 2.506553607736207e-07 0)
(0 2.712922007114917e-07 0)
(0 2.915820348318347e-07 0)
(0 3.115213475708004e-07 0)
(0 3.311045356606472e-07 0)
(0 3.503238303432795e-07 0)
(0 3.69169234670693e-07 0)
(0 3.876284774356747e-07 0)
(0 4.056869855661716e-07 0)
(0 4.233278771015331e-07 0)
(0 4.405319771365781e-07 0)
(0 4.572778593535721e-07 0)
(0 4.735419159404635e-07 0)
(0 4.89298458787495e-07 0)
(0 5.045198548283411e-07 0)
(0 5.191766982049657e-07 0)
(0 5.332380215418419e-07 0)
(0 5.4667154796829e-07 0)
(0 5.594439845848036e-07 0)
(0 5.715213567989728e-07 0)
(0 5.828693813480615e-07 0)
(0 5.934538738988587e-07 0)
(0 6.032411849336298e-07 0)
(0 6.121986553083677e-07 0)
(0 6.202950805797241e-07 0)
(0 6.275011711780963e-07 0)
(0 6.337899940708273e-07 0)
(0 6.391373811376122e-07 0)
(0 6.435222746461035e-07 0)
(0 6.459495184067591e-07 0)
(0 0 0)
(0 2.628963461231975e-08 0)
(0 5.213274471925312e-08 0)
(0 7.754159321190861e-08 0)
(0 1.025281400394629e-07 0)
(0 1.271036006522095e-07 0)
(0 1.512782606931281e-07 0)
(0 1.750612814380666e-07 0)
(0 1.984605186202585e-07 0)
(0 2.214823538507176e-07 0)
(0 2.441315380587459e-07 0)
(0 2.664110466003335e-07 0)
(0 2.883219459170168e-07 0)
(0 3.098632718746573e-07 0)
(0 3.310319201717665e-07 0)
(0 3.518225494816834e-07 0)
(0 3.722274982831115e-07 0)
(0 3.922367166395447e-07 0)
(0 4.118377145089918e-07 0)
(0 4.310155284980534e-07 0)
(0 4.497527093126934e-07 0)
(0 4.680293324915665e-07 0)
(0 4.858230353204691e-07 0)
(0 5.031090830953229e-07 0)
(0 5.198604680946271e-07 0)
(0 5.360480446997711e-07 0)
(0 5.516407040127476e-07 0)
(0 5.666055910070596e-07 0)
(0 5.809083666449713e-07 0)
(0 5.945135164389874e-07 0)
(0 6.073847055725339e-07 0)
(0 6.194851788898028e-07 0)
(0 6.30778201818239e-07 0)
(0 6.412275356509248e-07 0)
(0 6.507979377085772e-07 0)
(0 6.594556739204537e-07 0)
(0 6.671690286017457e-07 0)
(0 6.739087940776553e-07 0)
(0 6.796487219638984e-07 0)
(0 6.843659027062761e-07 0)
(0 6.869935730374219e-07 0)
(0 0 0)
(0 2.784969119140211e-08 0)
(0 5.52167970467038e-08 0)
(0 8.211545462906969e-08 0)
(0 1.085594029231649e-07 0)
(0 1.345615314181097e-07 0)
(0 1.601336889373258e-07 0)
(0 1.852864841972704e-07 0)
(0 2.100291001195676e-07 0)
(0 2.343691209622293e-07 0)
(0 2.583123715670879e-07 0)
(0 2.818627682597911e-07 0)
(0 3.050221811870682e-07 0)
(0 3.27790308135417e-07 0)
(0 3.501645601483821e-07 0)
(0 3.721399595489807e-07 0)
(0 3.937090512824698e-07 0)
(0 4.14861828824998e-07 0)
(0 4.35585676257249e-07 0)
(0 4.558653284785541e-07 0)
(0 4.756828519327433e-07 0)
(0 4.950176486242586e-07 0)
(0 5.138464866075458e-07 0)
(0 5.321435605118158e-07 0)
(0 5.498805859837524e-07 0)
(0 5.670269321469006e-07 0)
(0 5.835497962287732e-07 0)
(0 5.994144243217876e-07 0)
(0 6.145843817370822e-07 0)
(0 6.290218754900347e-07 0)
(0 6.426881300354711e-07 0)
(0 6.555438153797386e-07 0)
(0 6.675495241039915e-07 0)
(0 6.786662906663761e-07 0)
(0 6.888561427222521e-07 0)
(0 6.980826703292654e-07 0)
(0 7.063115951355822e-07 0)
(0 7.135113185169583e-07 0)
(0 7.196534260588439e-07 0)
(0 7.247131100691101e-07 0)
(0 7.275504498507068e-07 0)
(0 0 0)
(0 2.93815275841648e-08 0)
(0 5.82438688881009e-08 0)
(0 8.660321839400768e-08 0)
(0 1.144752617478378e-07 0)
(0 1.418747180040964e-07 0)
(0 1.68815144238991e-07 0)
(0 1.953087328512957e-07 0)
(0 2.2136612281952e-07 0)
(0 2.469962238341461e-07 0)
(0 2.722060524729553e-07 0)
(0 2.970005798407124e-07 0)
(0 3.213825903540177e-07 0)
(0 3.453525516210864e-07 0)
(0 3.689084956484859e-07 0)
(0 3.920459119069807e-07 0)
(0 4.147576531116092e-07 0)
(0 4.370338549220331e-07 0)
(0 4.588618711526144e-07 0)
(0 4.802262265007562e-07 0)
(0 5.011085892572493e-07 0)
(0 5.214877669496985e-07 0)
(0 5.4133972837879e-07 0)
(0 5.60637656016932e-07 0)
(0 5.793520332165457e-07 0)
(0 5.974507710718443e-07 0)
(0 6.148993800249914e-07 0)
(0 6.316611913159968e-07 0)
(0 6.476976330361363e-07 0)
(0 6.629685647320383e-07 0)
(0 6.774326730910911e-07 0)
(0 6.910479290993109e-07 0)
(0 7.037721041175595e-07 0)
(0 7.155633385564081e-07 0)
(0 7.263807523329006e-07 0)
(0 7.36185081290955e-07 0)
(0 7.449393186630495e-07 0)
(0 7.526093361019166e-07 0)
(0 7.591644560570536e-07 0)
(0 7.645779307291056e-07 0)
(0 7.676350158612018e-07 0)
(0 0 0)
(0 3.088362887533429e-08 0)
(0 6.12110172141679e-08 0)
(0 9.100060204488311e-08 0)
(0 1.202701844134642e-07 0)
(0 1.490364690015679e-07 0)
(0 1.773148663899134e-07 0)
(0 2.051192888669631e-07 0)
(0 2.324619602089509e-07 0)
(0 2.593532382069208e-07 0)
(0 2.858014489819228e-07 0)
(0 3.118127323943507e-07 0)
(0 3.37390898120854e-07 0)
(0 3.625372922466289e-07 0)
(0 3.872506745075364e-07 0)
(0 4.115271066217904e-07 0)
(0 4.353598524822704e-07 0)
(0 4.58739291345896e-07 0)
(0 4.816528455642312e-07 0)
(0 5.040849248572057e-07 0)
(0 5.260168896451954e-07 0)
(0 5.474270365254119e-07 0)
(0 5.682906096016037e-07 0)
(0 5.885798420361986e-07 0)
(0 6.082640328612059e-07 0)
(0 6.273096647086007e-07 0)
(0 6.456805686275867e-07 0)
(0 6.633381424405595e-07 0)
(0 6.802416290153637e-07 0)
(0 6.963484602324448e-07 0)
(0 7.116146711150792e-07 0)
(0 7.259953863808817e-07 0)
(0 7.394453784048698e-07 0)
(0 7.519196911731925e-07 0)
(0 7.63374319292122e-07 0)
(0 7.737669247176601e-07 0)
(0 7.830575670383319e-07 0)
(0 7.912094166656027e-07 0)
(0 7.981894157301205e-07 0)
(0 8.039688335044489e-07 0)
(0 8.072563924269158e-07 0)
(0 0 0)
(0 3.235428153575108e-08 0)
(0 6.411491419172901e-08 0)
(0 9.530276225750204e-08 0)
(0 1.25937909930533e-07 0)
(0 1.560392021818377e-07 0)
(0 1.856240467612868e-07 0)
(0 2.147082104166949e-07 0)
(0 2.433056288903921e-07 0)
(0 2.714282293353164e-07 0)
(0 2.990857640720559e-07 0)
(0 3.262856548814621e-07 0)
(0 3.530328472986602e-07 0)
(0 3.793296746488889e-07 0)
(0 4.051757318503941e-07 0)
(0 4.305677593127947e-07 0)
(0 4.554995375907779e-07 0)
(0 4.79961793823975e-07 0)
(0 5.039421214169533e-07 0)
(0 5.274249149015054e-07 0)
(0 5.503913224890737e-07 0)
(0 5.728192194737582e-07 0)
(0 5.94683206389473e-07 0)
(0 6.159546366518234e-07 0)
(0 6.366016793035073e-07 0)
(0 6.56589423385667e-07 0)
(0 6.758800312993427e-07 0)
(0 6.94432949183923e-07 0)
(0 7.122051826594091e-07 0)
(0 7.29151646043465e-07 0)
(0 7.452255921061496e-07 0)
(0 7.603791272841548e-07 0)
(0 7.745638137742046e-07 0)
(0 7.877313548650162e-07 0)
(0 7.998343531999095e-07 0)
(0 8.10827123572161e-07 0)
(0 8.206665328420599e-07 0)
(0 8.293128305642452e-07 0)
(0 8.367304268191963e-07 0)
(0 8.428885534384157e-07 0)
(0 8.464177309346181e-07 0)
(0 0 0)
(0 3.379157356968333e-08 0)
(0 6.695184793654509e-08 0)
(0 9.950429644047205e-08 0)
(0 1.314714509125242e-07 0)
(0 1.628744477888144e-07 0)
(0 1.93732832170012e-07 0)
(0 2.240643564791131e-07 0)
(0 2.538847924742272e-07 0)
(0 2.832077551406651e-07 0)
(0 3.120445372768487e-07 0)
(0 3.404039538661535e-07 0)
(0 3.682921955967064e-07 0)
(0 3.957126911598017e-07 0)
(0 4.226659782329538e-07 0)
(0 4.491495833456497e-07 0)
(0 4.751579111468361e-07 0)
(0 5.006821439577611e-07 0)
(0 5.257101529191994e-07 0)
(0 5.502264225475893e-07 0)
(0 5.742119911205833e-07 0)
(0 5.976444100385246e-07 0)
(0 6.20497726169925e-07 0)
(0 6.427424921927242e-07 0)
(0 6.643458110795364e-07 0)
(0 6.852714221094206e-07 0)
(0 7.054798370488038e-07 0)
(0 7.249285363070218e-07 0)
(0 7.435722357499193e-07 0)
(0 7.613632351855177e-07 0)
(0 7.782518589795141e-07 0)
(0 7.941869974138559e-07 0)
(0 8.091167538454908e-07 0)
(0 8.22989197084976e-07 0)
(0 8.357532104936221e-07 0)
(0 8.47359419200916e-07 0)
(0 8.577611651328857e-07 0)
(0 8.669154873844671e-07 0)
(0 8.747840551554432e-07 0)
(0 8.813339769511443e-07 0)
(0 8.851160391020582e-07 0)
(0 0 0)
(0 3.519339729844545e-08 0)
(0 6.971772836406957e-08 0)
(0 1.035992517235077e-07 0)
(0 1.368631055992985e-07 0)
(0 1.695328633515075e-07 0)
(0 2.016303421123176e-07 0)
(0 2.331754060184097e-07 0)
(0 2.641857821296634e-07 0)
(0 2.946768874636696e-07 0)
(0 3.246616658729303e-07 0)
(0 3.541504337689302e-07 0)
(0 3.83150733960137e-07 0)
(0 4.116671971265145e-07 0)
(0 4.397014107102731e-07 0)
(0 4.672517952727277e-07 0)
(0 4.94313488664625e-07 0)
(0 5.208782387000924e-07 0)
(0 5.469343054343832e-07 0)
(0 5.724663746489386e-07 0)
(0 5.974554847736795e-07 0)
(0 6.218789702577751e-07 0)
(0 6.457104253675475e-07 0)
(0 6.689196935689074e-07 0)
(0 6.914728890532019e-07 0)
(0 7.133324585755532e-07 0)
(0 7.344572935383798e-07 0)
(0 7.548029040531163e-07 0)
(0 7.74321668349162e-07 0)
(0 7.9296317206257e-07 0)
(0 8.106746521968844e-07 0)
(0 8.274015593527505e-07 0)
(0 8.430882485341466e-07 0)
(0 8.576788028239832e-07 0)
(0 8.711179850135462e-07 0)
(0 8.833522998103642e-07 0)
(0 8.943311341823665e-07 0)
(0 9.040079273674818e-07 0)
(0 9.123413082344809e-07 0)
(0 9.192961111567844e-07 0)
(0 9.233420925065214e-07 0)
(0 0 0)
(0 3.655745500571903e-08 0)
(0 7.240809855563554e-08 0)
(0 1.075811419244608e-07 0)
(0 1.421044801490639e-07 0)
(0 1.760042608973974e-07 0)
(0 2.093047003868877e-07 0)
(0 2.42027893409465e-07 0)
(0 2.741936351130873e-07 0)
(0 3.058192529051982e-07 0)
(0 3.369194471437725e-07 0)
(0 3.675061395534672e-07 0)
(0 3.975883285538844e-07 0)
(0 4.271719509215804e-07 0)
(0 4.562597494366736e-07 0)
(0 4.848511464009753e-07 0)
(0 5.129421231733938e-07 0)
(0 5.405251061705828e-07 0)
(0 5.675888601528163e-07 0)
(0 5.941183900898288e-07 0)
(0 6.200948535187626e-07 0)
(0 6.454954861125876e-07 0)
(0 6.702935442227746e-07 0)
(0 6.944582694945579e-07 0)
(0 7.179548823181108e-07 0)
(0 7.407446128939901e-07 0)
(0 7.627847810345002e-07 0)
(0 7.840289384037461e-07 0)
(0 8.044270895241969e-07 0)
(0 8.239260102088472e-07 0)
(0 8.424696835953278e-07 0)
(0 8.599998739345642e-07 0)
(0 8.764568558014281e-07 0)
(0 8.91780310420649e-07 0)
(0 9.059103904109068e-07 0)
(0 9.18788939002701e-07 0)
(0 9.303608303311362e-07 0)
(0 9.40575376293279e-07 0)
(0 9.49387728164759e-07 0)
(0 9.567601753508435e-07 0)
(0 9.610804762221262e-07 0)
(0 0 0)
(0 3.788126765450356e-08 0)
(0 7.501815202678783e-08 0)
(0 1.114429730356808e-07 0)
(0 1.471865218794673e-07 0)
(0 1.82277647381305e-07 0)
(0 2.167430820577888e-07 0)
(0 2.506072612030519e-07 0)
(0 2.838921525268529e-07 0)
(0 3.166170946871178e-07 0)
(0 3.487986433557143e-07 0)
(0 3.80450423717076e-07 0)
(0 4.115829885288003e-07 0)
(0 4.422036810789879e-07 0)
(0 4.723165025662365e-07 0)
(0 5.019219836171637e-07 0)
(0 5.310170598596395e-07 0)
(0 5.595949517098738e-07 0)
(0 5.876450488380767e-07 0)
(0 6.151528001897596e-07 0)
(0 6.4209961100798e-07 0)
(0 6.684627490875564e-07 0)
(0 6.942152635680991e-07 0)
(0 7.19325921019124e-07 0)
(0 7.437591654686718e-07 0)
(0 7.674751114454421e-07 0)
(0 7.90429582077411e-07 0)
(0 8.125742077824397e-07 0)
(0 8.338566049467116e-07 0)
(0 8.542206578834129e-07 0)
(0 8.736069307130504e-07 0)
(0 8.919532377027092e-07 0)
(0 9.091953997778162e-07 0)
(0 9.252682097885042e-07 0)
(0 9.401066179680492e-07 0)
(0 9.536471305512996e-07 0)
(0 9.658293888585674e-07 0)
(0 9.765978668468894e-07 0)
(0 9.859036026765787e-07 0)
(0 9.937058635688465e-07 0)
(0 9.983098193185576e-07 0)
(0 0 0)
(0 3.916218685942703e-08 0)
(0 7.75427562333599e-08 0)
(0 1.151772776961462e-07 0)
(0 1.520995640436225e-07 0)
(0 1.883412790322906e-07 0)
(0 2.239317765820672e-07 0)
(0 2.588979311918073e-07 0)
(0 2.932639774258596e-07 0)
(0 3.270513568351246e-07 0)
(0 3.60278570967368e-07 0)
(0 3.929610393655917e-07 0)
(0 4.251109616562059e-07 0)
(0 4.567371829975523e-07 0)
(0 4.87845062302501e-07 0)
(0 5.184363427776666e-07 0)
(0 5.485090244520173e-07 0)
(0 5.780572385217421e-07 0)
(0 6.070711235479399e-07 0)
(0 6.355367038528575e-07 0)
(0 6.634357709280916e-07 0)
(0 6.907457693711941e-07 0)
(0 7.174396899018695e-07 0)
(0 7.434859734910488e-07 0)
(0 7.688484326960726e-07 0)
(0 7.934861990676205e-07 0)
(0 8.173537090955221e-07 0)
(0 8.404007456516705e-07 0)
(0 8.625725572124775e-07 0)
(0 8.838100830388902e-07 0)
(0 9.040503183759936e-07 0)
(0 9.2322685856651e-07 0)
(0 9.412706631224472e-07 0)
(0 9.581110779641395e-07 0)
(0 9.736771433157507e-07 0)
(0 9.878991930816966e-07 0)
(0 1.000710716957773e-06 0)
(0 1.012050411475278e-06 0)
(0 1.021864306317251e-06 0)
(0 1.030107845315965e-06 0)
(0 1.035003322730361e-06 0)
(0 0 0)
(0 4.039741026050685e-08 0)
(0 7.997648257811606e-08 0)
(0 1.187761590103643e-07 0)
(0 1.568333825914757e-07 0)
(0 1.941827301589684e-07 0)
(0 2.308562677420624e-07 0)
(0 2.668833945351977e-07 0)
(0 3.022906941755274e-07 0)
(0 3.371017917682381e-07 0)
(0 3.713372153822471e-07 0)
(0 4.050142609601804e-07 0)
(0 4.381468597566846e-07 0)
(0 4.707454475441094e-07 0)
(0 5.028168349111084e-07 0)
(0 5.343640780365568e-07 0)
(0 5.653863493615916e-07 0)
(0 5.958788076268454e-07 0)
(0 6.258324668210888e-07 0)
(0 6.552340637472089e-07 0)
(0 6.840659242169802e-07 0)
(0 7.12305828427101e-07 0)
(0 7.39926876964662e-07 0)
(0 7.668973602930156e-07 0)
(0 7.931806366657018e-07 0)
(0 8.187350264225919e-07 0)
(0 8.435137347673404e-07 0)
(0 8.674648206128503e-07 0)
(0 8.905312360235239e-07 0)
(0 9.12650969086619e-07 0)
(0 9.33757332248197e-07 0)
(0 9.53779447202782e-07 0)
(0 9.726429844283512e-07 0)
(0 9.90271217368306e-07 0)
(0 1.006586443664012e-06 0)
(0 1.021511802919736e-06 0)
(0 1.034973475473698e-06 0)
(0 1.046903173812593e-06 0)
(0 1.05724074243299e-06 0)
(0 1.065936601331549e-06 0)
(0 1.071129804938131e-06 0)
(0 0 0)
(0 4.158400039546022e-08 0)
(0 8.231364308635819e-08 0)
(0 1.222313439378926e-07 0)
(0 1.613772651895458e-07 0)
(0 1.997889767389496e-07 0)
(0 2.375013307741912e-07 0)
(0 2.745463214245187e-07 0)
(0 3.109529496645724e-07 0)
(0 3.46747092063796e-07 0)
(0 3.819513722323049e-07 0)
(0 4.165850340069495e-07 0)
(0 4.506638155531285e-07 0)
(0 4.841998236337174e-07 0)
(0 5.172014073199894e-07 0)
(0 5.496730303953235e-07 0)
(0 5.816151416390896e-07 0)
(0 6.130240420907305e-07 0)
(0 6.438917483094417e-07 0)
(0 6.742058506063952e-07 0)
(0 7.039493653008474e-07 0)
(0 7.331005803362946e-07 0)
(0 7.616328942253381e-07 0)
(0 7.895146494583176e-07 0)
(0 8.167089634550055e-07 0)