/*--------------------------------*- C++ -*----------------------------------*\
| =========                 |                                                 |
| \\      /  F ield         | OpenFOAM: The Open Source CFD Toolbox           |
|  \\    /   O peration     | Version:  2206                                  |
|   \\  /    A nd           | Website:  www.openfoam.com                      |
|    \\/     M anipulation  |                                                 |
\*---------------------------------------------------------------------------*/
FoamFile
{
    version     2.0;
    format      ascii;
    arch        "LSB;label=32;scalar=64";
    class       volVectorField;
    location    "3";
    object      U;
}
// * * * * * * * * * * * * * * * * * * * * * * * * * * * * * * * * * * * * * //

dimensions      [0 1 -1 0 0 0 0];

internalField   nonuniform List<vector> 
18114
(
(0.0664210986723872 0.001020935837156947 2.923501806687353e-29)
(0.06551774176802359 0.001811326559661831 2.542930540987575e-29)
(0.06363256062039492 0.00197702570890983 0)
(0.06120398296078701 0.002049689782343144 0)
(0.05869771141633427 0.002100130710608557 -2.080647447045011e-29)
(0.05621777504688335 0.002119155036657745 -1.994953020661218e-29)
(0.05373729221884755 0.002105159191441489 -1.912651324309738e-29)
(0.05124530068571369 0.002067720077218658 1.838509188654782e-29)
(0.0487596985437951 0.002013318600331583 -1.770620054521828e-29)
(0.04630176489367625 0.001947009704727016 0)
(0.04388441580410953 0.001873817102292301 0)
(0.04150500041766646 0.00180264736845214 -1.57491543883945e-29)
(0.03919469594702443 0.001685457429145027 -1.510484017011164e-29)
(0.03687989619690484 0.001505392991931555 0)
(0.03471427381142492 0.001330697490335355 1.37385534913596e-29)
(0.03265834885209763 0.001166419055026327 0)
(0.03071345737611812 0.0010114561355053 0)
(0.02889838338737387 0.0008644663317721271 1.186883230745574e-29)
(0.02722350421498789 0.0007226075591048601 0)
(0.02568927116844775 0.0005902134573752915 1.083830287133065e-29)
(0.0243030518281678 0.0004685855355719592 -5.197890532272536e-30)
(0.02306378223009229 0.0003602899644635999 0)
(0.02196273348610355 0.0002664581733969904 0)
(0.02099131950985783 0.0001863085734582371 0)
(0.02014131395168526 0.0001189797248285236 0)
(0.0194029428314066 6.323340542569289e-05 0)
(0.0187644716138287 1.867762687277621e-05 0)
(0.01821613268010545 -1.687992905998792e-05 0)
(0.01774549506735779 -4.466703043628614e-05 4.238024483242216e-30)
(0.01734289084749159 -6.555516213495526e-05 -4.189625996651384e-30)
(0.01699629015429805 -7.993456666619796e-05 0)
(0.01669966256767581 -8.890554539849703e-05 4.110257143449236e-30)
(0.01643957785184231 -9.285951898621713e-05 4.074808890379611e-30)
(0.01621461972424992 -9.353379544261465e-05 -4.040517750135196e-30)
(0.01600956248391093 -9.104083584261955e-05 0)
(0.01583195462918813 -8.703094117400788e-05 0)
(0.01565856354320646 -8.068248582817262e-05 -1.965900975624706e-30)
(0.01551362256453371 -7.468625114604463e-05 -1.946437874247322e-30)
(0.01534424973803555 -6.075534212841822e-05 0)
(0.01525036282410017 -4.542550964006115e-05 0)
(0.06818449489011247 0.001323810264199948 2.089047064909197e-29)
(0.0687558865803635 0.00219342149722589 -2.540360754411463e-29)
(0.06930548055106757 0.002503279857002445 0)
(0.06942223022637579 0.002634453321320449 0)
(0.06937047391014589 0.00275758793080492 2.07193910440477e-29)
(0.06921725813872324 0.00285741442026153 1.9846579564094e-29)
(0.06895689376776691 0.002930936939775015 -1.864274144667257e-29)
(0.0685909433365702 0.002968122524247082 -1.825685290296018e-29)
(0.06812776714820004 0.002982255846629293 5.250007971409167e-29)
(0.06758223472592564 0.002983409303138045 0)
(0.06696387053455292 0.002976489225704865 0)
(0.06628103700283171 0.002963155245168297 -1.54888188431925e-29)
(0.06554457764498453 0.002947306812265768 1.494346549527112e-29)
(0.06475745005257745 0.002921600889359971 0)
(0.0639210320112629 0.002872115612108605 -1.357617151488561e-29)
(0.06303535099341508 0.002797056829927408 0)
(0.06210777924366038 0.002699000771275921 0)
(0.06115030137193794 0.002580199101035039 -1.171429225407439e-29)
(0.06017238665416966 0.002445962696720784 2.270723197696902e-29)
(0.05918587221160439 0.002294939117281263 -1.069212417591498e-29)
(0.05818531956695955 0.002129091961754572 5.127076915649462e-30)
(0.05718809481703348 0.001959517931063901 0)
(0.05620090621517654 0.001791124223526855 0)
(0.0552363059761941 0.001625032557907439 0)
(0.05429386059426843 0.001463367979218756 -9.180535418007817e-30)
(0.05338176021917797 0.001311763332919767 -8.966909685781238e-30)
(0.05249654667624735 0.001171170185450575 0)
(0.05164875045322777 0.001043395012595207 0)
(0.05082990936753762 0.0009275437013295334 -4.182356407675634e-30)
(0.05005319102040039 0.0008252176241771912 1.253504003093605e-29)
(0.04930353960588636 0.0007344020517757244 0)
(0.04860001390458308 0.0006568905345897693 -4.058425939298014e-30)
(0.04791740257359181 0.0005897674748146817 4.108085764944836e-30)
(0.04728316416438334 0.00053405064341136 -3.598878851121443e-32)
(0.04665991809647725 0.0004859009595192858 -3.987670190802777e-30)
(0.04608934320572245 0.0004467760651514465 0)
(0.04551459042617709 0.0004138962956545729 1.942822407669356e-30)
(0.04500487110241352 0.0003875942709538242 5.789824558076059e-30)
(0.04445256826212979 0.0003683601670383461 1.907107216384945e-30)
(0.04404280106381802 0.0003589559133949028 0)
(0.06811796350202098 0.0004720054447815984 -9.660276188471498e-29)
(0.06849516771536217 0.001179275681707525 0)
(0.06901182158931335 0.001640912026898249 4.312346755716051e-29)
(0.06947752940794288 0.001993969418743878 0)
(0.06980551254044523 0.002257265553121278 0)
(0.07011616608923901 0.002491294186648738 -3.833285024641286e-29)
(0.07035315743554472 0.002658740936730959 3.763037586678917e-29)
(0.07061781468121318 0.002796391074901539 3.56241930700387e-29)
(0.07080024707963294 0.002908303668347556 -3.489179905875898e-29)
(0.0709328951949748 0.002996290858360096 -3.318676961276285e-29)
(0.07103150857095192 0.0030673140099737 0)
(0.07109263318977858 0.003117153046617257 3.101513251629633e-29)
(0.07112042304374991 0.003153950980801091 2.956191066099166e-29)
(0.07111189801947465 0.00314698012636275 0)
(0.0710660711910274 0.00312093659732808 0)
(0.07097941513184934 0.00306981348924844 0)
(0.07085321156258104 0.002997417255241002 0)
(0.07069048672055622 0.002903482012723449 2.403837288334561e-29)
(0.07049546480960928 0.002792578892986616 -2.260672392621305e-29)
(0.07026995900605647 0.002671252406341693 0)
(0.07001404579386807 0.002543756033230651 0)
(0.06972835948722728 0.002411645768180224 0)
(0.06941490704268655 0.002275075085210291 -1.989312073424383e-29)
(0.06907674266474505 0.002139223383836545 0)
(0.06871726419361864 0.002010148792475272 9.124407923697114e-30)
(0.06834056002348751 0.001885644156900287 -9.40413598879322e-30)
(0.06795004127337076 0.001766527869370966 -1.792506569122399e-29)
(0.06754960085490189 0.001653615304638106 -1.759028973262873e-29)
(0.06714195920280458 0.001548560882926689 -1.729472467910352e-29)
(0.06673148399353782 0.001451382044689981 -8.340827248501591e-30)
(0.06631468332113026 0.001359938419071115 0)
(0.06589985405744549 0.00127779344453328 0)
(0.06548275365048553 0.001203904399105371 -8.07242050445289e-30)
(0.0650738429788823 0.00113944075395322 3.997025228116352e-30)
(0.06466193921947851 0.001081666737714084 3.957670634775764e-30)
(0.06426463476613266 0.001032065699775828 0)
(0.06385718569084468 0.0009870455349725567 7.810241028479433e-30)
(0.06348099419225779 0.0009502566510861313 -3.836136497601077e-30)
(0.06305930639719096 0.0009137636137062306 -1.892325509961586e-30)
(0.06275036413519985 0.0008865723932058538 1.877330240899492e-30)
(0.0680669727198448 0.0003857595923037289 4.646913470367977e-29)
(0.06826907275763984 0.00103576458398117 0)
(0.06859361933984362 0.001490974679752445 -4.313723845412045e-29)
(0.06894301285685188 0.001818721070536381 7.995390211642808e-29)
(0.06926550667242516 0.00207154199341322 0)
(0.06957477435896336 0.002282912433141149 3.834567596195655e-29)
(0.06988251284697268 0.002456468769763829 0)
(0.07017392844159648 0.002591594287390147 -3.563393563259034e-29)
(0.07045774279479346 0.002708472264498353 -6.790916142447597e-29)
(0.07072032420327024 0.002803928908034406 3.319209757989241e-29)
(0.07098169406299706 0.002882607757449826 -6.340204243947099e-29)
(0.07121657068843382 0.002938122573282011 0)
(0.07145439024848003 0.002976479652801841 -2.955932255321958e-29)
(0.07166251907149652 0.002991725650512366 5.67409778963738e-29)
(0.07187486132787912 0.00298434719366238 0)
(0.0720462259982375 0.002958515255111947 0)
(0.0722365375438907 0.002914423249900421 0)
(0.07238343034560289 0.002854774284578274 2.459657864444372e-29)
(0.07249998272621878 0.002782793656731389 0)
(0.07259140080142526 0.002697395628323995 0)
(0.07265595572343468 0.002602402519835624 2.175906436074275e-29)
(0.07269273355470558 0.002500292852350849 0)
(0.07270668774438059 0.002391955980750167 -4.98038488971591e-31)
(0.07269783758831501 0.002279905204627303 -1.976674185678698e-29)
(0.07266767874328493 0.002166939294297161 0)
(0.0726179916828389 0.002056435165335175 3.704887397464605e-29)
(0.07255068108282678 0.0019500371521944 3.624768860640253e-29)
(0.07246815449296089 0.001847141184056666 1.755348957162213e-29)
(0.07237346362845641 0.001749681283676058 1.725628784535249e-29)
(0.07226839144923419 0.001659882792540347 -1.737012474976523e-29)
(0.07215346675274638 0.001578250601493921 0)
(0.07202944362345728 0.001504024675321609 -1.683732725994175e-29)
(0.07189772198740581 0.001436729895170996 0)
(0.07176017195008418 0.001374696530803623 -8.188484455413693e-30)
(0.07161742375192218 0.001318713033311664 0)
(0.07147074606009814 0.00126966511642943 0)
(0.07131949940703668 0.00122864752367931 -7.785760659547846e-30)
(0.07116844590677153 0.001193798017665006 -7.762239103887008e-30)
(0.07100635704793277 0.001159548137635679 0)
(0.07087399088681948 0.001129620020921443 -1.870927448697101e-30)
(0.06804240155232445 0.0002598609155976313 0)
(0.06815260260363976 0.0007396208080473741 8.139043456891192e-29)
(0.06836727108367607 0.001129996600281285 -7.969784031179665e-29)
(0.06862843350452398 0.001441374588522872 -7.997307537500349e-29)
(0.06889406042604761 0.001697164326616956 0)
(0.06915183225983366 0.001910515869385189 -7.332170889673554e-29)
(0.06941639783028318 0.002092578632719398 0)
(0.06967771528956292 0.002241977421958234 0)
(0.0699418618605058 0.002370320932529825 1.349111119660725e-28)
(0.07019935875619294 0.002476394012173875 0)
(0.07046154960052008 0.002564856775944303 6.342186248447017e-29)
(0.07071813742923441 0.002632927240594004 6.075502519100824e-29)
(0.07097822677599464 0.002683433637372841 0)
(0.07123060967346433 0.002714332722176211 -5.675628055517899e-29)
(0.07148036433134637 0.002728240837494381 0)
(0.07171188864102816 0.002722447354250975 -5.276148646696267e-29)
(0.07193584992837676 0.002697010177628331 0)
(0.07213968926730084 0.002659294497018899 5.107264887223565e-31)
(0.0723345603824594 0.002607894240660464 -4.744737393870384e-29)
(0.07250883796113093 0.002545138816063755 0)
(0.07267149051910037 0.002467937131187156 2.256995757710173e-29)
(0.07280992107569244 0.002385231481204836 0)
(0.07293671657279938 0.002291915798761841 2.036194281611507e-29)
(0.07303982089888 0.002200069740207948 1.976430999114241e-29)
(0.0731338937596472 0.002100567278318603 0)
(0.07320453481254634 0.002007508612321983 4.54894250606822e-31)
(0.07327799455804215 0.001914227034037 -1.835230654768976e-29)
(0.07332764944690023 0.001825116184948097 0)
(0.07336392227073675 0.001740569198436062 -1.804689245949351e-29)
(0.07339060522559061 0.001662360565646609 1.736193457692892e-29)
(0.07340779106407133 0.0015906164263999 0)
(0.07341687505504084 0.001524821272776204 -2.975209332415721e-31)
(0.07342028450991252 0.001462866617023321 0)
(0.07341911003999146 0.001408969094162289 8.182750857634815e-30)
(0.07341337175930274 0.00136062716377506 0)
(0.07340335095057847 0.00131876902530787 -8.060479621177064e-30)
(0.07338942373573659 0.001280783057529624 0)
(0.07337312916054865 0.001248945246377362 7.755040502139178e-30)
(0.07335215498927428 0.001218269354483368 0)
(0.07333750689896795 0.001193589937705936 0)
(0.06803399646103869 0.0002071925955689 0)
(0.06810677787860397 0.0006085300091164473 -8.13974740356237e-29)
(0.06826006821652723 0.0009626696529745886 7.97081482974108e-29)
(0.06845963776355614 0.001258368387766371 -7.517357424872612e-29)
(0.06867528030379284 0.001505326644450041 0)
(0.06889432954007424 0.00171330124750916 1.44959531974826e-28)
(0.06911998509631481 0.00189072126087992 0)
(0.06934891491218885 0.002038849043386686 0)
(0.06958089034770283 0.002163221900977103 -9.883943809938368e-31)
(0.06981155786369705 0.002265578318511617 0)
(0.07004395004191624 0.002349150641228756 0)
(0.07027515362013714 0.002413760907183009 -6.077202721769358e-29)
(0.07050693774979874 0.002460779118632843 -5.843131357396608e-29)
(0.07073517651401622 0.002489856907354659 0)
(0.07096167760959887 0.002502305513474697 0)
(0.07118212756029174 0.002498768285484708 5.277761910107633e-29)
(0.07139756597035171 0.002480301441109644 0)
(0.07160284904457571 0.002449878747120915 -9.870870029701258e-29)
(0.07180122715784865 0.002407879022517155 4.746127336470598e-29)
(0.07198880717520886 0.002355419154947751 -4.645011834207765e-29)
(0.07216747604189717 0.002292957870003448 -4.434173045311369e-29)
(0.07233276317738173 0.002223738040838927 0)
(0.07248722740535386 0.002148244785317683 0)
(0.07262782041705781 0.002069576877397724 4.127791272769659e-29)
(0.07275748535350605 0.001988974122453229 0)
(0.07287174139012735 0.001908916242407797 -1.922177119659691e-29)
(0.07297590051602283 0.001828294974434027 3.835969162967001e-29)
(0.07306787570524888 0.001752840225613112 -3.754619549703744e-29)
(0.07315201723368457 0.00168072373685778 5.483705360404469e-29)
(0.07322692464933198 0.001612695204744302 0)
(0.07329602164959741 0.001550512972037339 0)
(0.07336160784257513 0.00149139167605005 1.712563359427314e-29)
(0.07341243300858458 0.001435816044592181 1.712578650698476e-29)
(0.07345898653277726 0.001384998103508459 1.684408979159576e-29)
(0.07350097152228408 0.001339055842967842 -1.657075068256107e-29)
(0.0735414689494133 0.001298000721767801 -8.246928060751801e-30)
(0.07357487216250398 0.001262052101582152 0)
(0.07361319414920879 0.001229693556464307 7.896966166968352e-30)
(0.07364473255434703 0.001202457990262393 0)
(0.07368378498109321 0.001178699697771176 0)
(0.06802893040490987 0.000169685908318765 0)
(0.06807908686850109 0.0005019108874115987 1.502872651665677e-28)
(0.0681899735348893 0.0008056747117583138 0)
(0.0683433729228015 0.001069609232299024 -7.083676495369627e-29)
(0.06851891737573615 0.001296823088981972 0)
(0.06870487252065689 0.00149202132634493 -7.163442197410031e-29)
(0.06889985068113147 0.001660888552816522 0)
(0.06910130669854979 0.001804850692026301 0)
(0.06930769657310304 0.001927025107096788 -1.310845029703491e-28)
(0.06951586697892513 0.002029064570236411 0)
(0.06972590257708736 0.002113180275430097 0)
(0.06993600273472218 0.002179807642026031 5.986489843502541e-29)
(0.07014626372356292 0.002229946143554081 5.844509981768464e-29)
(0.07035428332985855 0.002263897068778949 0)
(0.07056005101375205 0.002282528224581142 0)
(0.07076107865116246 0.002286479370098164 0)
(0.07095744812617141 0.002276611683929702 0)
(0.07114645341123881 0.002254435688657258 4.957006022930431e-29)
(0.07132893612885398 0.002220912176489211 0)
(0.07150299879438081 0.002177476726807507 4.64626375204046e-29)
(0.07166952741953962 0.002124865621581859 0)
(0.07182613747077014 0.002065579846856037 4.431235335476452e-29)
(0.07197438678043463 0.002000316701990286 0)
(0.07211216731463921 0.001931814310305586 -4.128882802493745e-29)
(0.0722414418503845 0.001860539098221635 4.093493587662794e-29)
(0.07236062471456563 0.001789363734478063 0)
(0.07247230456171784 0.001718463267992046 -3.836914358218627e-29)
(0.0725748477333919 0.001650770470315267 7.577563706353741e-29)
(0.07267131755778197 0.00158524438019047 6.391696673846868e-31)
(0.07276027841681675 0.001523188928509137 0)
(0.07284424493274333 0.001463777818718987 0)
(0.07292299382153333 0.001409708504082404 1.767676745132346e-29)
(0.07299875397121078 0.001360407971609208 2.358614576932134e-31)
(0.07306923129405832 0.001316698040167662 -1.684715760693313e-29)
(0.07313820618758077 0.001275545935688905 3.334237641331843e-29)
(0.07320125661415304 0.001239934018834264 1.630960207987678e-29)
(0.07326432081946468 0.001206540758664161 1.620785847029482e-29)
(0.07332146044504696 0.001178234527530973 -1.586605013807148e-29)
(0.07338138832569371 0.001151179665054761 7.837121246168898e-30)
(0.07343157190326134 0.001130044173404401 0)
(0.06802612980759319 0.0001430366164667277 1.458388010387178e-28)
(0.06806343949199732 0.0004246030024789514 -1.50293296845274e-28)
(0.06814807430996329 0.0006892711776366955 0)
(0.06826993245406468 0.0009273628195340962 2.880723533681829e-28)
(0.06841494074627219 0.001137494042718926 0)
(0.06857358558613402 0.001321126343663602 0)
(0.06874293850561018 0.001481564121358197 0)
(0.06892045313323648 0.001620019141342009 0)
(0.0691043193985466 0.001738442333895063 6.507333914599337e-29)
(0.06929170942616646 0.001838012033512808 0)
(0.06948181401366969 0.001920437537121604 0)
(0.06967281435667863 0.001986367585701653 -5.987620084178784e-29)
(0.06986443210561742 0.002036788633192859 0)
(0.07005458567483878 0.002072148055046622 0)
(0.07024307704581927 0.002093270182786546 0)
(0.07042768751940763 0.002100810795609828 0)
(0.07060854328286648 0.002095627452485262 5.160944029835488e-29)
(0.07078339605161683 0.002078923251881374 0)
(0.07095297555403393 0.002051678733793616 0)
(0.07111526989734729 0.002015320736319094 -4.738591072443308e-29)
(0.07127135631884514 0.001970571038115612 0)
(0.07141892782318178 0.001919419358146444 -4.43223725328286e-29)
(0.07155951598580639 0.00186260544026941 4.369431130013045e-29)
(0.07169107549087356 0.001802538182956583 -4.259626157735042e-29)
(0.07181575165873129 0.001739728310428326 -4.09440677342844e-29)
(0.07193165296469055 0.001676785081746525 0)
(0.07204148600420826 0.001613530790157271 0)
(0.07214318569887941 0.001552486164266451 6.006108353818439e-31)
(0.07224005027268308 0.001492807819876562 -3.744385107198794e-29)
(0.07232991390178239 0.001436687761504537 0)
(0.07241641571050207 0.00138281656649859 0)
(0.07249658635524164 0.001333874204482694 1.816141858021446e-29)
(0.07257495512856839 0.00128781836129777 -1.736850428240795e-29)
(0.07264798227893061 0.001246666834698783 -1.726883135023692e-29)
(0.07272108373497314 0.001207606404791468 -1.677212122403927e-29)
(0.07278878986478607 0.001173604361076426 0)
(0.07285792021186906 0.001141654534623354 -1.621096760476276e-29)
(0.07292097950733699 0.001114655696567946 7.969497602711299e-30)
(0.07298862541470402 0.001089209145406772 -7.838570016023628e-30)
(0.0730438260498476 0.001068754043336189 0)
(0.06802438370886235 0.0001228914330974426 -1.458401542398455e-28)
(0.06805360920367069 0.0003654300271983321 -1.411562629514509e-28)
(0.06812054482403833 0.0005967365434674372 0)
(0.06821915366985247 0.0008092011257031929 -2.80494133998058e-28)
(0.06833979766751282 0.001000078749006358 0)
(0.06847526851284182 0.001169214534225752 0)
(0.06862254121185411 0.001318485656992237 0)
(0.06877901287755311 0.001448685221552376 0)
(0.0689428570119934 0.001561148037662728 -1.264284127811852e-28)
(0.06911142086412775 0.001656606557449358 0)
(0.0692836407040321 0.001736402232028367 0)
(0.0694575618355647 0.001801084890531682 0)
(0.06963275366948664 0.001851559293045535 0)
(0.06980720896499058 0.001888206090479078 0)
(0.06998073392075103 0.001911785119391621 0)
(0.07015125815911218 0.001922859715825676 0)
(0.07031897049990678 0.001922224060252765 -5.16191289115787e-29)
(0.07048180785262685 0.001910832433093585 -1.007078769989948e-28)
(0.07064043422750158 0.00188953682561022 0)
(0.07079287001981667 0.001859609042882826 1.428831077749505e-28)
(0.07094019499285061 0.001821799001141754 9.302195571030538e-29)
(0.07108033036826673 0.001777848989940174 0)
(0.07121478714069403 0.001728501446013166 -8.79081732804878e-29)
(0.07134154738167277 0.001675877184676898 4.260451398895194e-29)
(0.07146268964327893 0.001620425040382746 0)
(0.07157615298096703 0.001564430817175869 0)
(0.07168461156767716 0.001507754699311062 4.024708517869951e-29)
(0.07178581845330437 0.001452747839185206 -3.883657812229468e-29)
(0.07188307992437369 0.001398654250332791 3.855879381782635e-29)
(0.07197379784807492 0.001347704367823077 -3.777304459527525e-29)
(0.07206180142260907 0.001298456781193967 0)
(0.07214373643314914 0.001253292209475823 4.512162920076601e-31)
(0.07222425257028292 0.001210254473353747 -3.560372606160524e-29)
(0.07229938242000887 0.001171724318222972 1.72718119355515e-29)
(0.07237462021802347 0.001135220587850835 1.71366188912685e-29)
(0.07244461609274185 0.001103374285064163 0)
(0.07251592206909029 0.001073543026204428 0)
(0.07258121276822034 0.00104838602271207 0)
(0.07265068099201059 0.001024952043871766 0)
(0.07270821053856655 0.001005966300316302 -7.804273982967238e-30)
(0.06802317320038519 0.0001068949092525308 1.377100754531323e-28)
(0.06804682580009981 0.0003181192302472716 3.711210587610651e-30)
(0.06810127210326035 0.0005212437510973443 1.365618462003418e-28)
(0.06818268493929487 0.0007105659567848768 1.384521181819044e-28)
(0.06828436356433545 0.0008832845405881511 0)
(0.06840089385487481 0.001038346485058091 0)
(0.06852961442203971 0.001176631173860483 0)
(0.06866801193212273 0.001298426666324688 1.271324545770153e-28)
(0.06881435244082659 0.001404642624939257 2.511378450678668e-28)
(0.06896615430387887 0.00149563801402575 0)
(0.06912231682915869 0.001572441608107947 0)
(0.06928083813723676 0.001635418495648496 0)
(0.06944122327533254 0.001685370278376331 0)
(0.06960152365055368 0.001722584334812791 0)
(0.06976158258009731 0.001747754646661753 0)
(0.06991943332765958 0.00176133682643782 0)
(0.0700753212118925 0.001764041782364853 0)
(0.07022728957378339 0.001756655221618204 1.007247014102926e-28)
(0.07037602671666035 0.001739935855978848 9.851727926475451e-29)
(0.07051960531281944 0.001715043370320656 -9.550429587123027e-29)
(0.07065914112596017 0.00168271298968425 7.025865628256601e-31)
(0.07079264245422179 0.001644525504856323 0)
(0.0709216399891147 0.001601157491217095 4.421294497505827e-29)
(0.07104409680851362 0.001554531197646505 -8.722387140903961e-29)
(0.07116206484801751 0.001505039425768235 0)
(0.07127338798088938 0.001454784357492542 4.166503612739101e-29)
(0.07138070029210611 0.001403658667224659 -4.025379026565922e-29)
(0.07148158533307579 0.001353830542886456 3.988454012995542e-29)
(0.07157929182184045 0.001304567525998369 -7.761463812113024e-29)
(0.07167096644332493 0.001258001293338052 7.602578353562551e-29)
(0.07176047963103976 0.001212771987979646 0)
(0.07184433415093867 0.001171131253329825 -7.303026696891376e-29)
(0.07192715498207496 0.001131287364305434 7.160958933204801e-29)
(0.07200475235701419 0.001095518241048356 0)
(0.07208249381063801 0.001061616393460634 1.746824273524587e-29)
(0.0721550817663955 0.001031936055473491 0)
(0.07222887397554094 0.001004186484741364 1.664030000394435e-29)
(0.07229665295441209 0.0009808078053037599 0)
(0.07236829241625234 0.0009593030253267558 0)
(0.07242845392394083 0.0009419834630359169 1.565354295274321e-29)
(0.0680222950069501 9.380956491539723e-05 -1.377108861810352e-28)
(0.06804191902973632 0.000279308579325513 1.374508459224571e-28)
(0.06808723766829793 0.0004586385255141986 -1.365662346699195e-28)
(0.06815566021442615 0.0006274518036773603 -1.322948176218954e-28)
(0.06824236447183676 0.0007832400044344003 1.308493341439022e-28)
(0.0683432624654603 0.0009245485559036799 0)
(0.06845618987413266 0.001051662884660548 0)
(0.06857887795417346 0.001164514334061052 -1.271440506099569e-28)
(0.06870976580445762 0.001263745041683219 -1.247072066132809e-28)
(0.06884656695146033 0.001349468266761437 -1.207692172561802e-28)
(0.0689882339620992 0.00142248059179638 -1.184045318958492e-28)
(0.06913280445724641 0.001482977337035492 0)
(0.06927976745182848 0.001531646027966697 0)
(0.06942724153794458 0.001568666936197787 1.110486370034819e-28)
(0.06957510136815488 0.001594644037936366 0)
(0.06972147508286605 0.001609912934493624 0)
(0.06986664819842642 0.001615091875331314 0)
(0.07000876123040521 0.001610827415251494 0)
(0.07014852874117278 0.00159779470100143 3.658782464909068e-31)
(0.07028409148021855 0.001577029564887527 -9.659768804978374e-29)
(0.07041657484830288 0.001549221799500084 -9.375487517234312e-29)
(0.07054405667114162 0.001515808209572627 9.219249209698272e-29)
(0.07066806142948784 0.001477417910844269 0)
(0.07078657632444085 0.001435810696212855 8.723725052642916e-29)
(0.07090159782223676 0.001391364459029526 0)
(0.07101094504973275 0.001346008402446807 -1.259176327070868e-28)
(0.07111714973360782 0.001299666774753535 4.12183651925446e-29)
(0.07121772813143273 0.001254314567532088 -3.989045361035507e-29)
(0.07131580809607907 0.001209304841260863 -4.467953253809019e-31)
(0.0714084555499635 0.00116661108427081 -7.693769843730966e-29)
(0.07149944297864107 0.001125035620951626 0)
(0.07158523200701723 0.001086616746176008 3.673039341815806e-29)
(0.07167029504264322 0.001049748631816579 -3.600536954644211e-29)
(0.07175038945313177 0.001016504028216353 0)
(0.0718306983656548 0.0009850005012851104 -3.461207019787706e-29)
(0.07190601974722891 0.0009573680969642827 0)
(0.07198250205136396 0.0009316836328263986 -1.664246904693126e-29)
(0.0720530276493479 0.0009101483207734629 1.642956730097776e-29)
(0.07212722472298655 0.000890704285405545 0)
(0.07219012705476426 0.0008751664904374828 -7.849150259912683e-30)
(0.06802163257768915 8.287223944738411e-05 0)
(0.06803822267905701 0.0002467987870654813 0)
(0.06807661793859088 0.0004057895096159793 0)
(0.06813496779163769 0.0005564461962143581 1.322998478572554e-28)
(0.06820968186149351 0.0006966500875325069 -1.308557633912403e-28)
(0.06829765129265229 0.0008248854163713035 1.269594494907847e-28)
(0.068397175049509 0.0009411130182017957 0)
(0.06850628492213677 0.001045034787623681 0)
(0.0686236211891947 0.001137096901935987 1.215182040012953e-28)
(0.06874711991289403 0.001217259792453987 1.207806510682034e-28)
(0.06887581100135023 0.001286136520735941 1.111203296034091e-30)
(0.06900782752830831 0.001343776376924563 0)
(0.06914265881135596 0.001390731547994406 0)
(0.06927851427230651 0.00142706735309451 -5.051229712239935e-31)
(0.06941528578722024 0.001453280730289766 0)
(0.06955121403075219 0.001469590419170438 0)
(0.06968660239366768 0.001476517426393675 0)
(0.06981970310169577 0.001474583146450999 -1.01431985622158e-28)
(0.06995123024193449 0.00146438360871028 -9.891135442494532e-29)
(0.07007941926782087 0.001446835518306051 -4.208300000944876e-31)
(0.07020537920337072 0.001422583851660742 0)
(0.07032728046590819 0.001392943684939869 -9.220528267029936e-29)
(0.07044660847931172 0.001358518419949504 0)
(0.07056141437651203 0.001320930373013158 -8.883815351306722e-29)
(0.07067360403432769 0.001280563484117557 8.693233326562639e-29)
(0.07078103121035238 0.001239189049860121 8.425787925464566e-29)
(0.07088609063611215 0.001196780386452302 -1.245112915061834e-28)
(0.07098631434886891 0.001155138000121971 -8.154235028791288e-29)
(0.07108466436238653 0.00111372028856656 3.950736505008133e-29)
(0.07117821974431499 0.001074316910918279 3.869059092619935e-29)
(0.07127057550886708 0.001035891014135609 0)
(0.07135822920423608 0.001000259623332163 0)
(0.07144545207118672 0.0009660296370653728 0)
(0.07152804801010301 0.0009350742077257587 3.596249631453857e-29)
(0.07161097606327164 0.0009058177290763895 0)
(0.07168914726155103 0.0008801773460936584 0)
(0.07176845441976744 0.0008565689648118384 0)
(0.07184191407067282 0.0008369363385290153 -1.643147943588219e-29)
(0.07191885169244512 0.0008196452296028891 0)
(0.07198473919259574 0.0008060134977798109 0)
(0.0680211162819685 7.357380919099615e-05 0)
(0.06803534497446682 0.0002191095486950303 0)
(0.06806833053182165 0.0003605280729398088 0)
(0.06811870026510407 0.0004951294425826352 0)
(0.06818369046225978 0.0006211532812115562 0)
(0.0682609130752284 0.0007371842105702735 -1.269659431660755e-28)
(0.06834904308630213 0.0008430089021305741 0)
(0.06844640595318034 0.0009382002851465993 0)
(0.06855183547963216 0.001023053283796269 -2.416118436455018e-28)
(0.06866353058481776 0.001097454128131524 0)
(0.06878060009459987 0.001161873318730469 1.173158906301238e-28)
(0.06890131142693111 0.001216268947321925 0)
(0.06902514323906728 0.001261058677108592 0)
(0.06915043777889479 0.001296202493617808 -1.105683813755245e-28)
(0.06927707908056627 0.001322073579006146 0)
(0.06940345330005591 0.001338784229012366 0)
(0.06952985230996722 0.001346756610486082 0)
(0.06965466688872195 0.001346402979443078 2.030109338825552e-28)
(0.06977857325364055 0.001338244628867918 9.947306346942702e-29)
(0.0698999360081913 0.001323084141886125 -3.647521135094163e-31)
(0.07001981912498462 0.001301524091314057 9.537901746638367e-29)
(0.0701365099197955 0.001274775003456617 0)
(0.07025142972394476 0.001243428281421392 0)
(0.0703627274578105 0.00120898721010698 8.884942580109311e-29)
(0.07047219337604911 0.00117185367412783 -8.694334535061844e-29)
(0.07057775858451404 0.001133660031290907 -8.585508964305423e-29)
(0.07068165536766466 0.001094440173542661 8.329774058300057e-29)
(0.07078149223079461 0.001055832754246913 8.155248400448005e-29)
(0.07088003169350934 0.001017402986418958 0)
(0.07097443580454041 0.0009807543427280282 0)
(0.07106807679556122 0.0009450064027868867 0)
(0.07115755542881587 0.0009117699662547316 0)
(0.07124690047374244 0.0008798638188121383 0)
(0.07133202413125168 0.0008509691825832413 -3.596661725806446e-29)
(0.07141762563093096 0.0008237806890223531 0)
(0.07149875137543958 0.0008000257083993066 3.473284904125148e-29)
(0.07158100451465295 0.0007784330024665344 0)