/*--------------------------------*- C++ -*----------------------------------*\
| =========                 |                                                 |
| \\      /  F ield         | OpenFOAM: The Open Source CFD Toolbox           |
|  \\    /   O peration     | Version:  2206                                  |
|   \\  /    A nd           | Website:  www.openfoam.com                      |
|    \\/     M anipulation  |                                                 |
\*---------------------------------------------------------------------------*/
FoamFile
{
    version     2.0;
    format      ascii;
    arch        "LSB;label=32;scalar=64";
    class       volVectorField;
    location    "3";
    object      U_0;
}
// * * * * * * * * * * * * * * * * * * * * * * * * * * * * * * * * * * * * * //

dimensions      [0 1 -1 0 0 0 0];

internalField   nonuniform List<vector> 
18114
(
(0.06642109890141747 0.001020934012282498 0)
(0.0655177440328753 0.001811325958024118 0)
(0.06363256820855909 0.00197702359440852 -2.288169707279493e-29)
(0.06120399855588301 0.002049685996687244 0)
(0.05869773704750994 0.002100125475101662 0)
(0.05621781254450582 0.002119149570452332 0)
(0.05373734148215076 0.002105154102184324 0)
(0.05124535943646158 0.002067715895689568 0)
(0.04875976391410213 0.002013315765438485 0)
(0.04630183454631131 0.001947008257176798 0)
(0.04388448810907051 0.001873816784823054 1.642133501792555e-29)
(0.04150507360075897 0.001802648432534697 0)
(0.03919476969727321 0.001685458699659563 -1.512955188347909e-29)
(0.03687996932229189 0.001505392357188958 1.445926691985161e-29)
(0.03471434904516963 0.001330694978668741 1.376389219487186e-29)
(0.03265842708988917 0.001166415680727359 1.309871258506458e-29)
(0.03071353918300388 0.001011453157112086 -1.247681991889473e-29)
(0.02889846867210192 0.0008644646641407526 1.18952546197909e-29)
(0.02722359195550736 0.0007226074501159541 -1.135607935275895e-29)
(0.02568936016099461 0.0005902143350244077 -1.086552818166149e-29)
(0.02430314089494718 0.0004685866467676611 0)
(0.02306387062319421 0.0003602907648898611 0)
(0.02196282066647342 0.0002664586161405795 0)
(0.02099140460288167 0.0001863092422819031 0)
(0.02014139594002137 0.000118981046229171 0)
(0.0194030206158604 6.32354986559942e-05 0)
(0.01876454402412411 1.868043020630105e-05 4.381211638332733e-30)
(0.01821619874650182 -1.687636594542766e-05 4.311419081107389e-30)
(0.01774555395405622 -4.466286180778953e-05 0)
(0.0173429419096987 -6.5550590505758e-05 -4.205522911761684e-30)
(0.01699633298850571 -7.992982613774492e-05 0)
(0.01669969679519486 -8.890066740356115e-05 0)
(0.01643960308892234 -9.285459630052442e-05 0)
(0.01621463555720786 -9.352887122493181e-05 -4.057335916005691e-30)
(0.01600956852358415 -9.103591606554997e-05 0)
(0.01583195044552342 -8.702588409316158e-05 1.99355913024059e-30)
(0.01565854877048348 -8.067718208665874e-05 1.974625275638503e-30)
(0.01551359687797899 -7.468059850775637e-05 -1.95525788534074e-30)
(0.01534421297189234 -6.074929159776703e-05 0)
(0.0152503147361031 -4.541917211888065e-05 0)
(0.06818449580238821 0.001323810523980564 0)
(0.06875588446080153 0.002193413568526361 0)
(0.06930548897160159 0.002503268281295905 -2.185944828105498e-29)
(0.06942224707182854 0.002634439047913721 0)
(0.06937049996741716 0.002757573240534502 4.079290383910971e-29)
(0.06921729532396695 0.002857394919661875 0)
(0.06895694216059053 0.002930922060365818 -3.769902549284009e-29)
(0.06859100185066438 0.002968111397151387 0)
(0.06812783437579724 0.00298224773944729 0)
(0.06758230879195427 0.002983403638635415 0)
(0.0669639496118595 0.002976485487894049 -1.626803667104559e-29)
(0.0662811188415432 0.002963153111154476 0)
(0.06554466011588198 0.002947305569248155 1.496791315174646e-29)
(0.06475753205701 0.002921599718074656 1.420532095875372e-29)
(0.06392111311627668 0.002872113649285976 -1.360121070828493e-29)
(0.06303543098537082 0.00279705369952637 -1.29377553792306e-29)
(0.06210785852873738 0.002698996727892929 1.231851113962867e-29)
(0.06115038104621936 0.002580194948445633 -1.174037057148511e-29)
(0.06017246801629909 0.002445959174217843 -1.155491016920092e-29)
(0.0591859562745516 0.002294936786241382 2.163217256050559e-29)
(0.05818540644305251 0.002129091167238483 0)
(0.05718818418238716 0.001959518893718408 1.009905483787852e-29)
(0.05620099624690358 0.001791126983393851 9.757750153479875e-30)
(0.05523639469415267 0.001625037372971319 0)
(0.05429394591258954 0.00146337448861316 0)
(0.05338183996200024 0.001311771307438054 8.99640009390627e-30)
(0.05249661893619444 0.001171179365093636 -1.313955144071025e-29)
(0.05164881419162221 0.001043405112082077 -4.254108784649431e-30)
(0.05082996397676481 0.0009275545635469917 8.539767853597259e-30)
(0.05005323630925795 0.0008252291455345313 4.150991903147104e-30)
(0.04930357616836173 0.0007344141452956973 0)
(0.04860004236084734 0.0006569033047555847 -8.247549754339021e-30)
(0.04791742284269723 0.0005897811119529277 -8.165035499452016e-30)
(0.04728317618403834 0.0005340651254769568 4.007630285572366e-30)
(0.04665992186265047 0.0004859163467453117 0)
(0.04608933793966218 0.0004467923242961222 -1.969826460948198e-30)
(0.0455145760662564 0.0004139130374201935 -1.951444280168477e-30)
(0.0450048466060261 0.0003876111289128449 -1.950765055291009e-30)
(0.04445253329206655 0.0003683770164832343 -1.915925289126406e-30)
(0.04404275456966984 0.0003589725369661032 0)
(0.06811796403622919 0.0004720042822966987 0)
(0.06849516920509706 0.001179266963909468 4.523076805560695e-29)
(0.06901182585619399 0.001640894859590144 1.53281389762696e-30)
(0.06947754102843709 0.001993945709536277 0)
(0.06980553431171324 0.002257238319859946 -4.078744114600453e-29)
(0.07011620063009708 0.002491265537760805 0)
(0.07035320449686115 0.002658714064043846 7.467294580219626e-29)
(0.07061787388435949 0.002796367585274284 -3.567064853814383e-29)
(0.07080031952995824 0.00290828491908393 0)
(0.07093297571657664 0.002996277690347462 0)
(0.07103159410005488 0.003067305629793318 -3.201974363805792e-29)
(0.07109272134634288 0.003117151974582508 0)
(0.07112051132256243 0.003153951311998275 0)
(0.07111198523241784 0.003146980476274917 -2.842317819036256e-29)
(0.07106615625967032 0.003120936380667519 0)
(0.07097949774309889 0.003069812062210313 0)
(0.07085329226345247 0.002997413998773608 0)
(0.07069056640606269 0.002903477409713128 0)
(0.07049554469172774 0.002792573912331161 -4.845202873911056e-31)
(0.07027004044922466 0.002671247840037645 1.137782833866118e-29)
(0.0700141298264455 0.00254375258537843 0)
(0.06972844652668526 0.002411644049980316 1.058820462144248e-29)
(0.06941499669909335 0.00227507568775523 -9.702893550079086e-30)
(0.06907683371080019 0.002139228271582857 -1.934622063744227e-29)
(0.06871735477451825 0.002010158311051639 -1.882524114056759e-29)
(0.06834064768867426 0.001885658326601564 -8.939449674601799e-30)
(0.06795012327191774 0.001766546045776913 2.674420793200368e-29)
(0.06754967462433778 0.001653636319513322 0)
(0.06714202252489752 0.001548583709652092 8.875001287771775e-30)
(0.06673153552526781 0.001451405680822617 8.546738409385945e-30)
(0.06631472124474011 0.001359960331462122 8.427452407458809e-30)
(0.06589987910195952 0.001277814943654647 8.187703595574738e-30)
(0.06548276553880678 0.001203925699430413 8.104968219733108e-30)
(0.06507384414285478 0.001139461973421296 0)
(0.06466193070574244 0.001081688018833725 0)
(0.06426461809342095 0.001032087695110308 0)
(0.06385716164749394 0.0009870689365403355 0)
(0.06348096288250805 0.0009502818581788528 3.853455535711405e-30)
(0.06305926818625178 0.0009137911675496785 1.901075229152339e-30)
(0.06275031664712369 0.0008866014044991975 0)
(0.06806697300547412 0.0003857579668048708 -8.661762967001892e-29)
(0.06826907415462047 0.001035753399930945 -4.524250410839381e-29)
(0.06859362360690505 0.00149095234327721 -3.965856328099812e-29)
(0.06894302403186754 0.001818689531778313 0)
(0.0692655280385521 0.002071504169539959 0)
(0.06957480776044432 0.002282871090329122 0)
(0.06988255967831715 0.002456428166676584 -3.700770375741673e-29)
(0.07017398940377936 0.002591558210590601 3.568040397699399e-29)
(0.07045781549885767 0.002708442916131104 0)
(0.0707204081869752 0.002803908513610476 0)
(0.07098178431130388 0.002882595732792544 3.202249985415666e-29)
(0.07121666528006576 0.002938117816272242 0)
(0.07145448562096406 0.002976479991226038 0)
(0.07166261239166764 0.002991728169515931 0)
(0.07187495046396879 0.002984349926217693 0)
(0.07204631062828969 0.002958516671839085 0)
(0.07223661824018045 0.002914422194387368 0)
(0.07238350763461343 0.00285477185349951 -4.872159289356582e-29)
(0.07250005971994079 0.002782788202857426 2.312459582067368e-29)
(0.07259147976178548 0.002697388779359178 -4.482683174071643e-29)
(0.07265603813984506 0.002602395770172906 0)
(0.07269281993069074 0.002500287946070989 -2.060733823216823e-29)
(0.07270677792336325 0.002391954668266202 -2.041903167938884e-29)
(0.07269793068266274 0.002279909082493203 3.913972799986762e-29)
(0.0726677731912128 0.002166949393303605 1.879356840436314e-29)
(0.07261808504711882 0.002056452047748943 0)
(0.07255077055223992 0.001950060453242278 -1.794934233894757e-29)
(0.07246823708830777 0.001847169571245853 0)
(0.07237353667017508 0.001749713748390383 -1.731754050769392e-29)
(0.07226845223356348 0.001659918338919298 8.905665049695482e-30)
(0.07215351280060503 0.001578287874885613 -2.556016583671845e-29)
(0.07202947351541736 0.001504062509408565 0)
(0.07189773553096004 0.001436767306448434 0)
(0.0717601700560781 0.001374731356271879 0)
(0.07161740813725859 0.00131874641257331 0)
(0.07147071908856839 0.001269698572488169 0)
(0.07131946353054235 0.001228679172436104 7.901219592519261e-30)
(0.0711684027847673 0.001193829396729918 -7.796903450294831e-30)
(0.07100630813760944 0.001159580915793238 0)
(0.0708739351634642 0.001129654913272645 0)
(0.06804240181636334 0.0002598585783738319 8.662315851654412e-29)
(0.06815260408235269 0.0007396070697468914 8.148040522816688e-29)
(0.06836727590065703 0.001129968890135853 8.285815984255798e-29)
(0.06862844542531532 0.001441334156758633 -7.765272058591094e-29)
(0.068894082951483 0.001697114543393661 0)
(0.06915186734956082 0.001910461061652353 -7.341285985915133e-29)
(0.06941644675468969 0.002092523980725962 0)
(0.06967777825006834 0.002241927915173437 0)
(0.06994193680910844 0.002370279983870693 -6.707344363545142e-29)
(0.0701994441693423 0.002476364177589984 0)
(0.07046164194682845 0.00256483864756554 0)
(0.07071823408576437 0.002632919956994135 0)
(0.0709783245242548 0.002683434867034096 0)
(0.07123070565991486 0.002714339273577363 0)
(0.07148045610635693 0.002728249056971564 0)
(0.07171197534790497 0.002722454356465652 0)
(0.07193593207110381 0.002697013727464362 -5.100478414991895e-29)
(0.07213976809383324 0.002659293717883917 -5.104288853853306e-31)
(0.07233463837095273 0.002607888012992391 0)
(0.07250891760757285 0.002545129138789754 2.261111185150139e-29)
(0.07267157332766654 0.002467926294419278 4.44375356601813e-29)
(0.07281000946909608 0.002385221424788116 0)
(0.07293681053090843 0.002291909938638223 2.04176404771407e-29)
(0.07303991960199138 0.002200070151365503 -1.982089131717049e-29)
(0.07313399604436464 0.002100576198900963 -3.952060311196122e-29)
(0.07320463603077068 0.002007527875691814 -1.927676522160339e-29)
(0.07327809451019968 0.001914256173756431 -1.884624793930436e-29)
(0.07332773889665811 0.001825154605021033 -1.846500177750704e-29)
(0.07336399931359866 0.00174061439163017 0)
(0.07339066748473454 0.001662412227846835 -1.742410082115421e-29)
(0.07340783710202053 0.0015906698463067 3.460937382794668e-29)
(0.07341690441620245 0.001524875425342622 0)
(0.07342029748202451 0.001462919706973551 -1.693099679739016e-29)
(0.07341910804085298 0.001409019014254875 0)
(0.07341335615850215 0.00136067284363245 -1.642760699724441e-29)
(0.0734033240654814 0.001318811154346159 0)
(0.07338938747085655 0.001280822266420871 8.268570545451077e-32)
(0.07337308464393319 0.001248983637431742 7.789672676572241e-30)
(0.07335210299457105 0.001218310228739987 0)
(0.07333744666077154 0.001193632071430988 0)
(0.06803399672167711 0.0002071897144109765 0)
(0.06810677943286136 0.0006085138675892748 -8.148745256807191e-29)
(0.06826007341158501 0.0009626366121652067 -7.688937520859493e-29)
(0.06845965027108576 0.001258319452693781 7.766514738165284e-29)
(0.06867530353283925 0.001505265580392768 0)
(0.06889436577089565 0.001713233533873678 1.714168005975521e-30)
(0.06912003546872847 0.001890653132768794 0)
(0.06934897935447391 0.002038786652736121 -6.799851655383368e-29)
(0.0695809672431047 0.002163169988151587 6.708994462770812e-29)
(0.06981164488295902 0.00226553999364674 0)
(0.07004404405087471 0.002349127041087381 -6.230568838659808e-29)
(0.07027525137230992 0.002413751071674795 0)
(0.07050703611982022 0.002460780452999835 0)
(0.0707352729697929 0.002489865623377112 0)
(0.07096177051238642 0.002502317456650768 0)
(0.07118221617242501 0.002498779470268862 5.305035906637981e-29)
(0.07139765061700976 0.002480308538249867 5.102027090152066e-29)
(0.07160293132026192 0.002449879749259093 -4.048400096521636e-31)
(0.07180130889580945 0.002407873102164259 0)
(0.07198889053272618 0.002355407279936796 4.655593406907643e-29)
(0.07216756308490359 0.002292942491605356 -4.444950864242815e-29)
(0.07233285590273143 0.002223722368356077 4.37865479828925e-29)
(0.07248732587300018 0.002148233113840467 0)
(0.07262792456030086 0.002069572688702011 -4.139069538789476e-29)
(0.072757592468859 0.00198898135095973 3.952828961134373e-29)
(0.07287184902100551 0.001908936378283866 5.864432197181657e-29)
(0.07297600437596939 0.001828329613065706 1.884915452624625e-29)
(0.07306797246328295 0.00175288838309265 1.846745290111611e-29)
(0.0731521021645378 0.001680783487206288 3.691059833015162e-29)
(0.07322699440212592 0.001612762757158889 -1.810152645272554e-29)
(0.07329607365889802 0.001550584102929388 -3.524017721081438e-29)
(0.07336163714526563 0.001491463174929857 -1.747470454695632e-29)
(0.07341244701220541 0.00143588522213552 1.693124967240357e-29)
(0.07345898271203778 0.001385062417480148 1.691022160671404e-29)
(0.07350095237118684 0.001339114518230311 3.306497969965471e-29)
(0.07354143765290594 0.001298054118507851 0)
(0.07357482864188226 0.001262101395747459 -7.976458927116432e-30)
(0.07361314283819825 0.00122974050667511 0)
(0.07364467460416815 0.001202505308675491 0)
(0.07368372278709279 0.001178749253444216 0)
(0.06802893065080219 0.0001696824438273717 0)
(0.06807908843086814 0.0005018918585912778 0)
(0.06818997898053168 0.0008056356601128519 7.689656963255394e-29)
(0.06834338598735111 0.001069551023576632 -1.461981340085279e-28)
(0.06851894141903243 0.001296749820308654 0)
(0.06870490992154643 0.001491939496130523 -6.852291059697507e-29)
(0.06889990272556518 0.001660805883658241 0)
(0.06910137313181461 0.001804774655894057 6.801135164018748e-29)
(0.06930777572450808 0.001926961697839035 6.515477444052691e-29)
(0.06951595631475643 0.002029017722110771 0)
(0.06972599879304935 0.002113151475307201 6.23193454359229e-29)
(0.06993610252765667 0.002179795923377912 -5.995957978816803e-29)
(0.07014636391158077 0.002229948465960198 5.822694715814236e-29)
(0.07035438155214879 0.002263908890506873 0)
(0.07056014575426925 0.002282544284630166 0)
(0.07076116940191436 0.002286494548428148 -5.306394090275561e-29)
(0.07095753575976173 0.002276621653532867 0)
(0.07114653924298089 0.002254437704648014 4.967278890285799e-29)
(0.07132902262509933 0.002220905096851408 0)
(0.07150308780078123 0.002177461625680985 -4.656848170270876e-29)
(0.07166962112049843 0.002124845242833428 0)
(0.07182623699274646 0.002065558414493433 -8.821958932627033e-29)
(0.07197449216736362 0.002000299412348145 0)
(0.07211227792153337 0.001931806042982974 4.140164044458601e-29)
(0.07224155492344725 0.001860544716993277 0)
(0.07236073782983656 0.001789385867126242 7.057043571949533e-31)
(0.07247241308143156 0.001718503898973838 0)
(0.07257494834452287 0.001650828437021517 3.834085925592424e-29)
(0.07267140577721924 0.001585317521612229 -7.447739346076095e-29)
(0.07276035113725662 0.001523273199197459 -1.871744679834045e-29)
(0.07284430018080205 0.001463868383833627 -1.835561769783794e-29)
(0.07292302908589311 0.001409800764990453 -2.627577538811613e-31)
(0.07299877034237306 0.001360495991557776 0)
(0.07306922831544825 0.001316780042948853 -1.691330132497804e-29)
(0.07313818722196283 0.001275619303907121 -3.347674386225882e-29)
(0.07320122361145008 0.001239999955521633 0)
(0.07326427761664435 0.001206599504008731 1.627700993876579e-29)
(0.07332140852719338 0.001178288828042765 8.003012282230031e-30)
(0.07338132984708712 0.001151232214334322 7.87255325553907e-30)
(0.07343150699766594 0.001130099029012356 0)
(0.06802613005597791 0.000143032587254083 -1.460150299155783e-28)
(0.06806344109312527 0.0004245809963770869 1.455733887353625e-28)
(0.06814808004384477 0.0006892260700269562 0)
(0.06826994617121365 0.0009272953820611202 1.462112696453121e-28)
(0.06841496565462615 0.001137408644419834 0)
(0.06857362410620686 0.001321030454812454 3.0597003258242e-30)
(0.06874299210241019 0.00148146694031128 0)
(0.06892052152348803 0.001619929512621844 0)
(0.06910440082722975 0.001738367434888611 -6.516536000954924e-29)
(0.0692918012414092 0.001837956603013909 0)
(0.06948191282097248 0.00192040343450147 -1.221509216486064e-28)
(0.06967291676233345 0.001986353775971087 5.997090004372858e-29)
(0.06986453490411845 0.002036791583138367 -1.740314972586106e-28)
(0.07005468654616846 0.002072162393671634 1.126281046848771e-28)
(0.07024317458314891 0.002093289632129765 0)
(0.07042778147187202 0.002100829153630511 0)
(0.07060863461023442 0.002095639443465995 0)
(0.07078348631986892 0.002078925403590189 0)
(0.07095306717153577 0.002051669653143039 0)
(0.07111536489054816 0.002015301607947384 0)
(0.07127145669354647 0.001970545172176089 0)
(0.07141903447432509 0.001919391923020969 4.443128198559275e-29)
(0.07155962881764243 0.001862582693500918 0)
(0.07169119330277002 0.001802526276157772 0)
(0.07181587171540146 0.001739733032153021 -4.16783476058391e-29)
(0.07193177218283871 0.001676809981477624 -4.008875332231513e-29)
(0.0720416000270574 0.00161357799285556 0)
(0.0721432907345228 0.001552554686582927 6.005112764980461e-31)
(0.07224014226955934 0.001492895043256586 7.571182884918415e-29)
(0.07232998975937091 0.001436788960372851 3.683076755805277e-29)
(0.07241647342142458 0.001382925638703407 3.614116059706835e-29)
(0.07249662437303731 0.001333985378186546 5.371528613108373e-29)
(0.07257497433924373 0.001287925146630158 0)
(0.07264798299434505 0.00124676613453594 0)
(0.07272106870863528 0.001207694928156515 1.683941218094972e-29)
(0.07278876141431527 0.001173682372833373 1.672412384419358e-29)
(0.07285788102351747 0.001141722917604053 -1.628013222588096e-29)
(0.07292093095452296 0.001114718046859823 -2.41477608463778e-29)
(0.07298856978210136 0.001089268899409157 -1.580681405899241e-29)
(0.07304376218123293 0.00106881612055055 0)
(0.06802438396092957 0.0001228868526011646 1.460163848009602e-28)
(0.06805361083566244 0.0003654048680991512 -2.869089727012024e-28)
(0.06812055080532183 0.0005966849935571573 0)
(0.06821916804961839 0.0008091240686204199 1.386202655371342e-28)
(0.06833982351034834 0.000999980842473202 1.366226627868641e-28)
(0.06847530815829772 0.001169104058546406 1.372198868440248e-28)
(0.06862259636263211 0.001318373305799904 0)
(0.06877908337639742 0.001448581395456755 0)
(0.06894294102616465 0.001561061194732669 0)
(0.06911151562990529 0.001656542297758893 0)
(0.06928374272386872 0.001736362789874862 2.431027808473263e-28)
(0.06945766759428532 0.001801069100709908 0)
(0.069632859905843 0.001851563058366136 2.309240676375203e-28)
(0.06980731334529466 0.001888223122285734 -2.248430433208637e-28)
(0.06998083511086262 0.001911808014970557 0)
(0.07015135602514194 0.001922881113347721 -1.064445448969511e-28)
(0.07031906613077042 0.001922237688603957 0)
(0.07048190298578237 0.001910834154113163 0)
(0.07064053136432845 0.001889525023811183 0)
(0.07079297127031343 0.001859585136888607 0)
(0.07094030231150558 0.001821766973976526 9.323448416426019e-29)
(0.07108044454649901 0.001777815018663098 0)
(0.07121490786614113 0.001728473010451061 0)
(0.07134167324998507 0.001675861628666302 4.324741418600685e-29)
(0.07146281763291351 0.001620429232085982 4.168636147206654e-29)
(0.0715762798372057 0.001564458975848107 0)
(0.07168473270318101 0.001507809340706898 0)
(0.07178592997728345 0.001452827819167292 -3.895691626003061e-29)
(0.07188317774384805 0.001398756425204751 -3.815254317968093e-29)
(0.07197387881445905 0.001347823117638635 0)
(0.07206186381783863 0.001298584833847414 0)
(0.07214377876914277 0.001253422799767056 -3.597694732659509e-29)
(0.07222427617097529 0.00121037989137339 3.573492084120725e-29)
(0.07229938753300361 0.001171840547077616 3.506251272513532e-29)
(0.07237460990588411 0.001135323542511599 -1.720438007679612e-29)
(0.07244459202962324 0.001103464389103858 -1.672694884800629e-29)
(0.07251588693522652 0.001073621470493126 0)
(0.07258116716198999 0.001048457266710771 -1.254544188976315e-31)
(0.07265062716703169 0.00102502015111366 7.934107669100082e-30)
(0.07270814651889319 0.001006037128561918 0)
(0.06802317345864778 0.00010688979108762 0)
(0.06804682747584789 0.0003180907653356062 2.789561363034761e-28)
(0.06810127833182823 0.000521185392037403 0)
(0.06818270002176902 0.0007104789493638611 -2.740089382931149e-28)
(0.06828439045157457 0.0008831739504011409 -1.366323251629651e-28)
(0.06840093464392336 0.001038221204299114 0)
(0.06852967103468723 0.001176503257649813 0)
(0.06866808453881795 0.001298308162791468 0)
(0.06881443922623989 0.001404543374863607 0)
(0.0689662523704801 0.001495564529892063 0)
(0.06912242253966079 0.001572396512489385 -1.211215166949501e-30)
(0.06928094784441668 0.001635400469353824 0)
(0.06944133361904069 0.001685374611106359 -1.15128231737581e-28)
(0.06960163226701134 0.00172260377193393 1.122123031028401e-28)
(0.0697616881573126 0.001747780624290494 0)
(0.06991953581968695 0.001761360813108649 1.064616651011309e-28)
(0.07007542182620809 0.001764056503101275 0)
(0.07022739018277162 0.001756655890943833 0)
(0.07037612994471047 0.001739920654355085 0)
(0.07051971332935478 0.001715014019113186 0)
(0.07065925591915985 0.001682674207685526 7.01463905137457e-31)
(0.07079276472797093 0.001644484550900193 9.169314847383398e-29)
(0.07092176933395664 0.001601123089056937 0)
(0.07104423162699831 0.001554511914764466 -1.307017288173818e-28)
(0.07116220192638638 0.001505043190002513 0)
(0.07127352387083355 0.001454816073333836 4.178073944935279e-29)
(0.0713808301670926 0.001403721187374266 -4.087327889917014e-29)
(0.07148170517463623 0.00135392249161098 0)
(0.07157939733899264 0.001304685222102467 0)
(0.07167105447557282 0.001258138104088625 3.83712972423614e-29)
(0.07176054846366402 0.001212919530606105 0)
(0.07184438237533136 0.001171281484253939 0)
(0.07192718410208336 0.001131431481468106 -3.574041154469468e-29)
(0.07200476257353397 0.001095651431753877 -3.506782821517884e-29)
(0.07208248838496692 0.001061734119807808 1.720695335279196e-29)
(0.0721550618425013 0.001032038928844277 -1.703707072482392e-29)
(0.07222884221463294 0.001004276049125414 0)
(0.07229660932750642 0.0009808892610389955 3.26644005885518e-29)
(0.07236823918782725 0.0009593811924715913 0)
(0.07242838858148817 0.0009420650290566592 0)
(0.06802229527315179 9.380389510682703e-05 0)
(0.06804192076105235 0.0002792766494008146 -1.376241589577069e-28)
(0.06808724415373119 0.0004585730392220909 0)
(0.06815567601959602 0.0006273544899383389 2.919944349404313e-30)
(0.06824239252457176 0.0007831165180361873 -1.310223930548888e-28)
(0.06834330447544058 0.0009244082303312877 0)
(0.06845624778172697 0.001051518864632622 0)
(0.0685789524619073 0.001164380414656015 0)
(0.06870985542266719 0.001263632693976969 0)
(0.06884666871803108 0.001349385022015197 0)
(0.06898834402001033 0.001422429459413234 -1.165711318023073e-30)
(0.06913291889117536 0.001482956835393003 0)
(0.06927988267349348 0.00153165081664984 0)
(0.0694273551114153 0.001568688727038203 -1.11236832740972e-28)
(0.0695752119986226 0.001594673009679652 0)
(0.0697215828247431 0.001609939316266852 0)
(0.06986675437189946 0.001615107351850413 0)
(0.07000886786419153 0.00161082654571222 0)
(0.07014863856829055 0.001597775479400891 0)
(0.07028420675310597 0.001576994055486847 -9.680422536837168e-29)
(0.07041669762784272 0.001549175522557174 -9.396634970213786e-29)
(0.07054418763472771 0.001515759582518911 -9.170724928080473e-29)
(0.07066820018432449 0.001477376971392642 9.031434898029223e-29)
(0.07078672113516903 0.001435787298832737 1.757560066829694e-28)
(0.07090174534789126 0.001391367617079622 0)
(0.07101109158843649 0.001346043728642261 4.268997638181725e-29)
(0.07111729017792513 0.00129973744214908 8.221539334736206e-29)
(0.07121785822092404 0.001254418968317299 0)
(0.07131592325110955 0.001209438702423703 0)
(0.07140855253832697 0.001166766670139814 -7.718696612024595e-29)
(0.07149951995128097 0.001125203357025563 0)
(0.07158528763740452 0.001086787222456466 0)
(0.0716703308623175 0.001049912023155753 0)
(0.07175040562654697 0.001016654758855703 3.577308079787181e-29)
(0.07183069819785133 0.0009851337341332698 0)
(0.07190600395541286 0.0009574846594505563 1.703932455734714e-29)
(0.07198247327723421 0.0009317855122120694 0)
(0.07205298537924623 0.0009102414126778464 1.085372225638812e-31)
(0.07212717123508985 0.0008907942062643337 -1.617607645063991e-29)
(0.07219005944655771 0.0008752606042153659 0)
(0.06802163285178126 8.286602850357204e-05 0)
(0.06803822448189836 0.00024676324059754 0)
(0.06807662472070011 0.0004057165193895075 1.308270121896834e-28)
(0.06813498432415784 0.0005563380388307537 1.324721906304316e-28)
(0.06820971115445441 0.0006965134235708414 1.310288314528874e-28)
(0.06829769466001405 0.0008247301466301181 0)
(0.06839723407441124 0.0009409527557308563 0)
(0.06850636089726138 0.001044884657468566 0)
(0.06862371349561523 0.001136970277787925 0)
(0.06874722577219823 0.001217165774991324 0)
(0.06887592618223919 0.001286078796102569 -1.113171280664566e-30)
(0.06900794758141846 0.001343753202515727 0)
(0.06914277970494236 0.001390736693769278 0)
(0.06927863342797072 0.001427091370918634 2.219930498491363e-28)
(0.06941540199087073 0.001453312515490145 0)
(0.06955132754717183 0.00146961892112676 0)
(0.0696867147054914 0.001476533241505765 0)
(0.06981981636048998 0.001474580192396206 -1.016300522401922e-28)
(0.06995134718759401 0.001464359743304114 0)
(0.07007954228352241 0.001446793176376732 1.940542445262037e-28)
(0.07020551052450652 0.001422529375281495 9.510988153352889e-29)
(0.07032742087571132 0.001392886646780713 0)
(0.07044675764521245 0.001358470196112801 -9.032690480094293e-29)
(0.0705615703967289 0.001320902200278988 -8.830794036516147e-29)
(0.07067376347288794 0.001280565550923078 0)
(0.07078119008888462 0.001239227782177562 -8.448866253587088e-29)
(0.07088624355900511 0.001196859320837942 -4.134162640689822e-29)
(0.07098645669031584 0.001155255300862849 8.178176588330074e-29)
(0.07108479116525548 0.001113870988803852 0)
(0.07117832758224783 0.001074492083555708 3.881524206709251e-29)
(0.07127066232819589 0.001036079794942878 0)
(0.0713582937858127 0.001000451175304736 0)
(0.07144549586174297 0.0009662131660036231 0)
(0.07152807119552339 0.0009352433810757999 -7.187481972608917e-29)
(0.07161098185930351 0.0009059675423609762 -3.535415392027504e-29)
(0.07168913596368295 0.0008803089021913318 0)
(0.07176842858908208 0.0008566847591478638 -1.695444609470547e-29)
(0.0718418728092011 0.0008370428584785894 -1.650324816117283e-29)
(0.07191879729234926 0.0008197488387530812 3.243983334633459e-29)
(0.07198466844732201 0.0008061221390824383 0)
(0.06802111656219945 7.35670308459073e-05 -1.290183187097118e-28)
(0.06803534685847479 0.000219070133529396 -1.288859699746761e-28)
(0.06806833765589675 0.0003604472866538779 -1.308299413596525e-28)
(0.06811871745663568 0.0004950101223937849 0)
(0.06818372088249167 0.0006210031736881408 0)
(0.0682609579530208 0.0007370139279409502 0)
(0.06834910338998815 0.0008428322851904339 1.23643211959957e-28)
(0.06844648312032436 0.0009380333565874381 0)
(0.06855193025880862 0.001022911202909709 -1.202581038577682e-28)
(0.06866364100423331 0.001097347790603518 0)
(0.06878072131956356 0.00116180771230778 -2.339376456003903e-28)
(0.06890143788695091 0.001216242656188821 0)
(0.0690252703533225 0.001261064425736637 -1.12357019141817e-28)
(0.0691505629563965 0.001296229047872442 -1.107547446484115e-28)
(0.06927720119881205 0.001322108155333994 0)
(0.06940357300794217 0.001338814521605587 0)
(0.06952997135021602 0.001346772320738505 0)
(0.0696547874125342 0.001346397507510185 -1.208151604697644e-31)
(0.06977869788640571 0.001338215606099918 0)
(0.06990006735148348 0.001323034189237882 -9.724882180364838e-29)
(0.07001995952717333 0.001301460388221553 -1.907080427691917e-28)
(0.07013666047283318 0.001274708469679211 -9.359982100671137e-29)
(0.07025159037892795 0.001243371768007201 0)
(0.07036289619562766 0.001208953441938753 0)
(0.0704723665713005 0.00117185401818393 -8.789833410284734e-29)
(0.07057793174149317 0.001133701815827351 0)
(0.07068182275877206 0.001094527349283331 0)
(0.07078164875818095 0.001055963313942142 -1.643679986012295e-28)
(0.07088017207245437 0.001017571221840952 0)
(0.07097455636907668 0.0009809500480984989 0)
(0.07106817530773685 0.0009452172748178487 0)
(0.07115763075719954 0.0009119836350919994 3.797958462341061e-29)
(0.07124695379147818 0.0008800685722492755 0)
(0.07133205579099149 0.0008511579523290653 3.610143032820381e-29)
(0.07141763842912195 0.0008239485034679518 3.535813619460953e-29)
(0.07149874523375783 0.0008001739591701398 0)
(0.07158098184737942 0.0007785646476595923 1.695628857380544e-29)
(0.07165751465322832 0.0007608293017257304 0)
(0.07173735517021039 0.0007457358457341086 -1.626360725429768e-29)
(0.07180635959534806 0.0007341235894458458 0)
(0.06802070443231789 6.555770239843431e-05 1.290187789030907e-28)