/*--------------------------------*- C++ -*----------------------------------*\
| =========                 |                                                 |
| \\      /  F ield         | OpenFOAM: The Open Source CFD Toolbox           |
|  \\    /   O peration     | Version:  2206                                  |
|   \\  /    A nd           | Website:  www.openfoam.com                      |
|    \\/     M anipulation  |                                                 |
\*---------------------------------------------------------------------------*/
FoamFile
{
    version     2.0;
    format      ascii;
    arch        "LSB;label=32;scalar=64";
    class       surfaceVectorField;
    location    "3";
    object      Uf;
}
// * * * * * * * * * * * * * * * * * * * * * * * * * * * * * * * * * * * * * //

dimensions      [0 1 -1 0 0 0 0];

internalField   nonuniform List<vector> 
35915
(
(0.06664041416907762 0.001416130998779291 2.733216269958885e-29)
(0.06730279616375175 0.001377587846273435 8.560216686977522e-30)
(0.06451908736492576 0.001894176092953385 1.271465904809278e-29)
(0.06713681386247339 0.002121341153299676 -9.553997027703171e-30)
(0.06225118234874898 0.002013357727724383 0)
(0.06646902064133327 0.002267931305730679 0)
(0.05990090807928093 0.002074910234201419 -1.040323217212145e-29)
(0.06531310685447131 0.002350311404865105 0)
(0.05746654651163358 0.002109642869060467 -2.037800254450615e-29)
(0.06403409313134109 0.002434409773651699 4.028023130631878e-31)
(0.05498565429001152 0.002112157117372385 -1.953802192024809e-29)
(0.06271751734704213 0.002480951289018782 -6.412013887262749e-31)
(0.0524878192643084 0.002086439643109012 -3.707194742120479e-31)
(0.06134709408218135 0.002497904425570642 -2.050450029237881e-29)
(0.04999687592484642 0.002040519351372949 3.394540283775068e-31)
(0.05991812346617049 0.002491022329787902 2.227226673877267e-30)
(0.04752835802959238 0.00198016416769106 -8.85310432119378e-30)
(0.05844373470175417 0.002468605725930662 1.505028316200526e-29)
(0.04509324754993407 0.001910413420030356 0)
(0.05694200210717736 0.002435206416073317 0)
(0.0426973885352309 0.00183823225122448 -7.874573686249821e-30)
(0.05542414594626812 0.002395962400509041 0)
(0.04034001314253279 0.001744052424545639 -1.542699742081124e-29)
(0.05389302200005453 0.002357485747143174 -1.766281323770978e-29)
(0.03803389588667654 0.001595425249538163 -7.552423356589303e-30)
(0.05236964060443548 0.002306233666051762 -8.967944690590914e-31)
(0.03580962676942834 0.001418045278408279 6.869273814281122e-30)
(0.0508186774818346 0.002224389744998573 0)
(0.03368947476037132 0.00124855830718344 6.869279631121213e-30)
(0.0493176578686265 0.002120275256744061 -1.436135951506679e-30)
(0.03168555199304264 0.001088937627270002 0)
(0.04784685550838386 0.002004047219556224 0)
(0.02980705147275486 0.0009379612634560924 5.9344137460951e-30)
(0.04641062454061768 0.001878624800584513 0)
(0.02806201927302428 0.0007935369736648563 5.934418515329904e-30)
(0.04502434926187959 0.001745154949962609 -1.757975293837937e-30)
(0.02645668545959349 0.0006564105340393191 5.419149323637604e-30)
(0.04369795296516996 0.00160545373141695 1.135362121279343e-29)
(0.02499632537822382 0.0005293995196441351 2.820209224475405e-30)
(0.04243757986152061 0.001460475890181125 -1.366294579561334e-30)
(0.02368364518560795 0.000414437770145419 -2.598946232207784e-30)
(0.04124419448868193 0.001312790734519688 5.255590838576978e-31)
(0.0225130899017337 0.000313374085905234 0)
(0.04012594790578292 0.001170659902605902 0)
(0.02147625485148174 0.0002263833875042645 0)
(0.0390818297919247 0.001036933334947704 0)
(0.02056496955325113 0.0001526441605894113 0)
(0.03811382321075923 0.0009113769264064108 0)
(0.01977036624083299 9.110657426983812e-05 0)
(0.03721759822978466 0.000794688092910729 -4.590270656194104e-30)
(0.0190819407450751 4.095552317238636e-05 0)
(0.0363923629341003 0.0006885034441849517 -4.483457854153384e-30)
(0.01848876179688515 8.988542702316215e-07 0)
(0.03563052096526767 0.0005932502042365558 0)
(0.01797918402735301 -3.077347575604285e-05 2.119011632756129e-30)
(0.03493245375786767 0.0005096426328597604 0)
(0.01754251146305755 -5.511109344327926e-05 2.420039008348349e-32)
(0.03428771473604795 0.0004367313570276875 2.171035341839677e-31)
(0.01716813909773085 -7.274486255899014e-05 -2.094813534895795e-30)
(0.0336980537419956 0.0003744255035943816 3.955346390952924e-30)
(0.01684671027233715 -8.442005495886337e-05 2.055128079883547e-30)
(0.03314992793545587 0.0003214767014463494 0)
(0.0165687334453016 -9.088253175403245e-05 4.092533020844102e-30)
(0.03264985150448983 0.0002780199314994448 2.660691207656947e-31)
(0.01632623972923931 -9.319665714586135e-05 1.714639521777929e-32)
(0.03217850365275091 0.0002425324670810891 4.329550797483056e-30)
(0.01611184625356612 -9.228731587228547e-05 -2.020259247307551e-30)
(0.03174890552570548 0.0002144283214896008 -2.272678947298576e-30)
(0.0159200164404497 -8.903588883813018e-05 0)
(0.03133475397182053 0.0001918610741680317 -1.993836874648453e-30)
(0.01574557198271111 -8.385671395866453e-05 -9.829503461171425e-31)
(0.03096066267292144 0.0001744724905262975 0)
(0.01558417074767595 -7.76843688567441e-05 -1.956169426135809e-30)
(0.03058659077200914 0.0001614263226505215 -1.156923361410327e-31)
(0.01543283147078644 -6.772079734774514e-05 -9.732190363972129e-31)
(0.03025926063155978 0.0001513616548607092 1.819316064319385e-30)
(0.0152835638966286 -5.309042641640335e-05 0)
(0.02989842276249514 0.0001492878596420558 9.535545097107306e-31)
(0.02964659562979918 0.000152562266557767 0)
(0.01513101840642095 -3.771783307654923e-05 5.386123071085422e-27)
(0.06860105803288992 0.001758615663870341 -2.256556903815844e-30)
(0.06815122982238907 0.0007945310409311952 -2.12298725751373e-29)
(0.06910661076466743 0.00234835060085268 -1.270181002432331e-29)
(0.06862552756642679 0.001615789947573765 -1.270180341113207e-29)
(0.06933105184992287 0.002568866557295887 0)
(0.06915865123211103 0.002043496367434933 2.156173481686409e-29)
(0.06937240203566093 0.002696020596537038 1.035969055385581e-29)
(0.06944987984961618 0.002308973224442984 0)
(0.06929413599265491 0.002807501151906135 2.028298551064924e-29)
(0.06958799321445693 0.002512693695029166 1.035969459313278e-29)
(0.06908969500637768 0.002894175662842434 6.019280503280092e-31)
(0.0696667121011337 0.002685416819448484 -9.243138582436514e-30)
(0.06877295835569097 0.002949529723437215 -1.844979726379021e-29)
(0.0696550255836984 0.002814672593084594 1.268370539751255e-29)
(0.06835571801841946 0.00297518918222235 1.712159730582591e-29)
(0.0696043790234795 0.002908301643664759 8.683674310511357e-30)
(0.0678533604178861 0.002982832574624718 2.625005164334888e-29)
(0.06946400721438661 0.002971009692131439 4.665940847340056e-30)
(0.06727281395808496 0.002979949265953888 0)
(0.06925756516347974 0.003015806704172981 -1.659338820614416e-29)
(0.06662053378827361 0.002969822238348168 -7.74440603948197e-30)
(0.068997689879342 0.003048303902192666 0)
(0.06591333395287954 0.00295523103212785 -2.72683223438526e-31)
(0.06868683558099152 0.00306475403511253 1.171960293829281e-29)
(0.06515346007615279 0.002934453856262421 7.471735915589969e-30)
(0.06833250104770727 0.003066183058184329 2.225269013341534e-29)
(0.06434282664963216 0.002896858261060888 -6.788082924363997e-30)
(0.0679346750093574 0.003035105761353969 0)
(0.0634790252785345 0.002834586236423439 -6.788088543882928e-30)
(0.06749355285851412 0.002984166249448791 -6.788083486346517e-30)
(0.06257111107160257 0.002748028820376276 0)
(0.06700738460569924 0.002912057590822899 0)
(0.06162883209155084 0.002639599959668774 -5.857143808537828e-30)
(0.06648049723855524 0.002821005875940686 0)
(0.06066210004094533 0.00251308092491749 5.496463184257179e-30)
(0.06592039617984533 0.002711994300136778 6.16204777763042e-30)
(0.05967891248405956 0.002370450935669703 6.007560240698735e-30)
(0.06533392817443344 0.002588753067267905 4.958476001455545e-30)
(0.05868518663395368 0.002212015570271766 -2.782526563564494e-30)
(0.06472791836656358 0.002454317318195765 -5.346059554490211e-30)
(0.05768710485832523 0.002044304977064253 2.563539384680258e-30)
(0.06409968576399845 0.002310991116175039 2.563537170404118e-30)
(0.05669464175421044 0.001875321106904333 0)
(0.06345823057517157 0.00216324361483321 0)
(0.05571824850181609 0.001708078419048904 0)
(0.06280791040219584 0.00201344807619435 -9.946565922766751e-30)
(0.05476466472354471 0.001544200295237613 -4.590266194223479e-30)
(0.06215652844796901 0.001865082123599692 0)
(0.05383702175791015 0.001387565680185742 -9.073722585877001e-30)
(0.06150556687695 0.001722451650353609 -1.178560304328823e-30)
(0.05293851252556914 0.001241466780666606 -4.48345621295802e-30)
(0.0608611649573744 0.001587131688675586 -1.011611481113498e-29)
(0.05207175896440584 0.001107282617695651 0)
(0.0602232991600069 0.001460120483555761 -8.962538823184854e-30)
(0.05123878326982476 0.000985469373077889 -2.091177622050336e-30)
(0.05959918117919316 0.00134273209751162 -8.795150956245455e-30)
(0.05044071277894739 0.0008763806762286843 4.176339610116123e-30)
(0.05898594014312133 0.001234912087660216 -1.073854524393134e-29)
(0.04967788369333614 0.0007798098492277915 6.267521568460696e-30)
(0.05839234368455155 0.001137360809176171 2.172629844008068e-30)
(0.04895108174082564 0.0006956463021520785 -2.029212500023724e-30)
(0.05780911794730274 0.001048380341034065 0)
(0.04825862029292562 0.0006233290118959002 2.482903760661727e-32)
(0.05724994075070668 0.0009705782535996503 -2.029211379457697e-30)
(0.04759961263816082 0.0005619090645884562 2.036048895465608e-30)
(0.05670008515345435 0.0009016318608425837 -2.367820854269302e-30)
(0.04697175923820932 0.0005099758057525323 -2.011829137802446e-30)
(0.05617851086160324 0.0008423681729175865 2.206577981518309e-30)
(0.04637388422423638 0.000466338515445657 -1.993835412407077e-30)
(0.05566093618054126 0.0007898170225478988 2.275750073094858e-31)
(0.04580273958792361 0.000430336182693908 9.714110684685045e-31)
(0.05517699671236175 0.0007456925474793644 0)
(0.04525696917776229 0.0004007452848720986 3.866323253547584e-30)
(0.05468589597110275 0.0007072664942517933 4.876534252583076e-30)
(0.04473271136423179 0.0003779772199452671 3.848466078838363e-30)
(0.0542429407164995 0.0006756837115876535 7.05114390078829e-31)
(0.04423335245951789 0.000363658040535027 9.535536727619647e-31)
(0.05375594553647427 0.0006487050155970247 -1.462631375820908e-31)
(0.05339659090720719 0.0006311027707020854 9.386659546142655e-31)
(0.04375486017346931 0.0003571703184239248 -5.178531207713075e-27)
(0.06835123275080585 0.0008256403891290969 -4.830140472398144e-29)
(0.06809246781779679 0.0004612971594320847 -1.985350932078423e-29)
(0.06881323415353797 0.00141009374220491 2.156172330701855e-29)
(0.06838211982071857 0.001153784444083504 0)
(0.06924950641107472 0.001817440638255367 2.156174410768299e-29)
(0.06880272009129686 0.001607218131172435 -6.64518298490547e-30)
(0.06962479851196075 0.002125617423724099 0)
(0.06921027087682387 0.001933675234049057 3.997695376628832e-29)
(0.06995370417987341 0.002374279815343471 -1.916641618954487e-29)
(0.06953550941631584 0.002183782708554583 0)
(0.07023802635561652 0.002575017523197653 -3.512546520278894e-31)
(0.06984547007591006 0.002401090450872844 2.255995333649348e-30)
(0.07048826642440838 0.002727565974607472 3.662728492326644e-29)
(0.07011783505315475 0.002564429787925512 1.881518544886036e-29)
(0.07070278257604394 0.002852347346602261 3.662127721527767e-31)
(0.0703958715287915 0.002693784759559684 2.85610541022534e-32)
(0.0708655349745103 0.002952297243956962 -3.403928471163636e-29)
(0.07062899490780428 0.002808259343453399 -5.140048317752481e-29)
(0.07098312045896417 0.003031802418733575 -1.659339201786251e-29)
(0.0708266096928255 0.002898226299925925 -3.00266211311891e-31)
(0.07106190430117144 0.003092233517624064 1.550755961726312e-29)
(0.07100660135437054 0.002969528416434635 -3.170102837503437e-29)
(0.07110704272530163 0.003135552005949011 3.028852189510787e-29)
(0.07115460201715712 0.003019627321452106 1.550756237588432e-29)
(0.07111733419288024 0.003150465555028965 1.478096146710542e-29)
(0.07128740676370925 0.003055906985424299 1.498357243614271e-30)
(0.07108980421775317 0.003133958367163359 0)
(0.07138720867904431 0.003062655073670344 2.837049748250436e-29)
(0.07102328062746043 0.003095375053548286 0)
(0.07147046640588862 0.003050713442287715 0)
(0.07091610328970509 0.003033615386510894 0)
(0.07151282071574029 0.003019262960518639 0)
(0.07077095726467281 0.002950449652136573 1.201918179590897e-29)
(0.07154487474135574 0.002966184529680112 0)
(0.07059324148627188 0.002848030473848146 7.158333081265045e-31)
(0.07153695880106922 0.002889747043855379 2.260961875019086e-29)
(0.07038343100799634 0.002731915672123786 -1.130336614800202e-29)
(0.07149772412499 0.002798604796030901 -1.130335708457282e-29)
(0.07014272708856956 0.002607504242826868 0)
(0.07143068036275313 0.002695066654715074 0)
(0.06987165668152014 0.002477700923965791 0)
(0.07133500133888755 0.002582111002343524 1.087953745013443e-29)
(0.06957160584825746 0.002343360450069301 -9.946556962418526e-30)
(0.07121054723025541 0.002463347771657752 0)
(0.06924560939352585 0.002207149257067023 -9.946563668241198e-30)
(0.07106079823904393 0.002339501359346009 -9.232868498787469e-30)
(0.06889660925038783 0.002074686108863139 4.562202498034371e-30)
(0.0708872911162189 0.002214142200973337 -9.883376482041123e-30)
(0.06852846283001814 0.001947896493935027 -1.398611682091616e-31)
(0.07069247261540122 0.002090660625548029 4.562201284139958e-30)
(0.06814485763963579 0.001826086030814355 -1.36645995753688e-29)
(0.07047927716200544 0.001970801530185185 1.378407578044635e-29)
(0.06774919027934904 0.001710071603026027 -1.775767775942869e-29)
(0.0702503626520143 0.001855854063082508 8.770747784582372e-30)
(0.06734543535857258 0.001601088107966281 -1.744250724577173e-29)
(0.0700088793116292 0.001746554196314649 -6.334271104612799e-31)
(0.06693605806794939 0.001499971476225547 -1.281777710790397e-29)
(0.0697577132172342 0.001644357002281478 -7.854331734845906e-31)
(0.06652277716180569 0.001405660242870218 -4.170414626649173e-30)
(0.06949993968399945 0.001550709291460964 -1.285547916264979e-29)
(0.06610691076593676 0.0013188659410211 0)
(0.06923407716076525 0.00146431381191798 0)
(0.06569136643321691 0.001240848929498466 -4.036209413275899e-30)
(0.06896465112374381 0.001386188565146541 -8.418669849791762e-30)
(0.06527771541389271 0.001171672582672377 -2.037698788329431e-30)
(0.06869024026165979 0.001315347293513019 -4.036207201562952e-30)
(0.06486796875055356 0.001110553750822264 3.977347934844208e-30)
(0.06841701005975483 0.0012521771579957 -2.095734313276204e-30)
(0.06446249214272128 0.001056866222569484 1.978835622547277e-30)
(0.0681396842314715 0.001195353503229597 1.978833763413113e-30)
(0.06406190628793441 0.001009555620417515 3.905119986274431e-30)
(0.06786769329912509 0.001146335430242008 0)
(0.06366615958984077 0.0009686510951578978 1.987052939282428e-30)
(0.06758834557567325 0.001103067091174005 3.965844434888655e-31)
(0.06327399114438433 0.0009320101341449115 -2.864231096927907e-30)
(0.06732472319834226 0.00106790272279415 -5.799189404758192e-30)
(0.06289159950084805 0.0009001680043510489 -7.49775861033614e-33)
(0.06703283500658674 0.001031143166349602 -9.461619750903408e-31)
(0.06681218088374417 0.001000848186954293 1.489158409771936e-31)
(0.06252189214058217 0.0008691365998946907 -2.027285636226211e-26)
(0.06817490697073667 0.0007107619301634476 2.323457864582627e-29)
(0.06805468735653411 0.0003043894888416279 2.323456713970057e-29)
(0.0684636807037791 0.001263369522809463 -2.156860889241979e-29)
(0.06821083794702856 0.0008650075979161504 4.069521841355439e-29)
(0.06878005475329346 0.001654847797743381 1.84083027617833e-29)
(0.0684804454354639 0.001290838539142237 -6.141754024302692e-29)
(0.0691002995773303 0.001945131473118585 3.997696967132574e-29)
(0.06878572336137695 0.001613423049152594 5.337989117694312e-30)
(0.06941437447381565 0.002177227164771681 1.917282918137342e-29)
(0.06907978369929663 0.001869699358656797 0)
(0.06973029242463098 0.002369690562193495 1.917284665489196e-29)
(0.06936330341577897 0.002085162900765168 -1.74880225378955e-29)
(0.07002965882462907 0.002524031498450042 -1.781695987152147e-29)
(0.0696494554128886 0.002265053353527917 0)
(0.0703138248228469 0.002650033250263113 -5.177154143682505e-29)
(0.06992582190596865 0.002409608251272388 -1.781696509687347e-29)
(0.0705884629876956 0.00275620056559978 -1.735855381096441e-29)
(0.07019980234466087 0.002533610523989709 3.163983355654683e-29)
(0.07085093265236658 0.002843268315962293 -1.510495182917565e-29)
(0.0704598414748787 0.002635746122783503 1.659604549672018e-29)
(0.07109949991186408 0.00291036515370715 -3.17010345349144e-29)
(0.07072162180312211 0.002720951087750577 -8.846683360337586e-31)
(0.07133479732498334 0.002957301105113099 -1.477965516637524e-29)
(0.07096735400998616 0.002784320443151466 3.037752006292321e-29)
(0.07155986512158902 0.002984102648556857 1.359081012256631e-29)
(0.07121630843908304 0.002830830457217305 -1.477965728612919e-29)
(0.07176850165440499 0.002988036423562355 2.837050029092592e-29)
(0.07144656429908287 0.002854010894578264 -3.234608879677686e-31)
(0.07196222857732737 0.002971431229459447 0)
(0.07167761275992911 0.002856980123928224 0)
(0.0721428501442244 0.002936469261002116 0)
(0.07187905727997951 0.002838636260813857 -2.638075230481939e-29)
(0.07230712951792433 0.002884598778505254 1.229828467666328e-29)
(0.07208619371689239 0.00280190161314417 0)
(0.07244194201231868 0.002818783983963039 1.229829386978401e-29)
(0.07226155977802697 0.002754933261920894 1.322949193576553e-29)
(0.07254714383644681 0.002740094657960134 0)
(0.07241727153739695 0.002693404128088303 -2.372369689690049e-29)
(0.07262390162256407 0.002649899090829585 1.087952834367784e-29)
(0.07255011938929282 0.002618312522876123 0)
(0.07267459155817718 0.002551347703626252 1.087953591657017e-29)
(0.0726637231574157 0.002531427222287039 2.276643554207835e-29)
(0.07269974121091098 0.002446124434625009 -2.490191613949989e-31)
(0.07275132738255272 0.002438206787465931 0)
(0.07270249668562113 0.002335930610806497 -1.013238705727587e-29)
(0.07282170226045077 0.002336756960393155 9.099025398483215e-30)
(0.07268189345130924 0.002223422267114204 -9.883374017130368e-30)
(0.07286882937737579 0.002234758954435958 -8.421135347433577e-31)
(0.07264284096787142 0.002111687246449383 1.852443141068193e-29)
(0.072900786413353 0.00212972879072011 0)
(0.0725838423160903 0.002003236174135585 3.66482814062676e-29)
(0.07291126343486368 0.002029818028388905 1.909828028339019e-29)
(0.07250856792883613 0.001898589182333453 2.690059167031549e-29)
(0.07291433804750977 0.001931148214560276 9.105911676750881e-30)
(0.07242044844101313 0.00179841124666868 1.740488874752769e-29)
(0.07289790224852447 0.001834694988820817 8.77673929406046e-30)
(0.07232079355423869 0.001704782049270089 -5.691414816879094e-32)
(0.07286869327612856 0.001744034499135208 -3.953136961875181e-31)
(0.07221095201792911 0.001619066706559793 -8.685064405419577e-30)
(0.0728294987131111 0.001660574489192068 -9.208920506891432e-32)
(0.07209120324197732 0.001541137646510287 -8.418661792003881e-30)
(0.0727806293374417 0.001584087111900396 0)
(0.07196321958614957 0.00147037729204933 -8.418665332105643e-30)
(0.0727231598239616 0.001514197294432688 -8.603715946600442e-30)
(0.07182870848251215 0.001405713218738304 -4.094241468568144e-30)
(0.07265900379007262 0.001449883704285221 0)
(0.07168873574981366 0.00134670478676148 -4.094242915718443e-30)
(0.07258964159494707 0.001392175133452584 2.466617810520306e-32)
(0.07154379816722033 0.001294189078551817 0)
(0.07251539841481185 0.001340316020607612 0)
(0.07139522024763419 0.001249156322754581 -3.89287981723291e-30)
(0.07243704922496985 0.001294937641686051 -4.030242822649459e-30)
(0.07124303711374738 0.001211222772636889 -7.773999883043516e-30)
(0.07235446235234036 0.001255273669799501 -3.892877385873238e-30)
(0.07108960497689476 0.001176673079250686 -3.881119914638242e-30)
(0.07227078837537905 0.001221357032862408 -4.769074041683391e-33)
(0.0709320636923922 0.001144584080240805 -9.354636641947705e-31)
(0.07217925692134425 0.001188705401497394 0)
(0.07210574984327758 0.001162961606729069 -9.354630014292913e-31)
(0.07076996765533067 0.001112344858301614 2.006747367837262e-26)
(0.06809125994313227 0.0004997407467087841 4.069519775561303e-29)
(0.06803819904230611 0.0002311291896001802 0)
(0.06827674072976099 0.0009348086118956661 8.463352031517465e-31)
(0.06812969016053837 0.0006795248892892495 -1.756421630789206e-30)
(0.06851037693288931 0.001285685521902202 -7.983545777931556e-29)
(0.06831366949035703 0.001057198487772893 3.500149142984463e-30)
(0.06876233191011295 0.001569269398899503 -3.998655603090088e-29)
(0.06854403546296597 0.001361462521565895 -7.757332465252164e-29)
(0.06902026709955117 0.001803840049793049 -3.666083788090068e-29)
(0.06878467020740214 0.001611757244660108 0)
(0.06928391615713603 0.002001547210527503 -3.666087076882122e-29)
(0.06902308075278066 0.001821505614582914 3.890594944257566e-29)
(0.06954827444517862 0.002167277994582561 0)
(0.06926819132036757 0.00200068567225835 0)
(0.06980960362761329 0.002306149149528829 6.745552684959144e-29)
(0.06951331496991146 0.002148268718441042 0)
(0.07007027389387205 0.002423357449795501 6.745558467176811e-29)
(0.06976137599079769 0.002272929001091333 6.498067108681754e-29)
(0.0703301433811258 0.002520625375539372 3.171091796484174e-29)
(0.07000545820789703 0.002375864596282003 0)
(0.07059016343773188 0.002598891994244356 6.208844438719706e-29)
(0.07025274972487662 0.002460918227340669 3.171092431013385e-29)
(0.07084821506665183 0.002658180428746719 3.037752490941316e-29)
(0.07049664543398777 0.002526255451510911 -9.450081638879595e-31)
(0.07110503472864617 0.002698883173617092 -2.837812896744776e-29)
(0.07074258217666526 0.002573996869161002 -2.921566453287891e-29)
(0.07135572519169868 0.002721286777112127 -2.837815139030363e-29)
(0.0709828930072564 0.002603306263248087 -2.837813208637211e-29)
(0.07159683722374009 0.002725344096986335 -2.638073309136459e-29)
(0.07122102088242906 0.002615853836470571 0)
(0.07182438507023475 0.002709728770735602 -2.638075318118093e-29)
(0.07144700800611033 0.002611074456314492 1.581960425251065e-31)
(0.0720370423484701 0.002678152344290512 2.553631500190156e-31)
(0.07166670784586152 0.002589230702752966 0)
(0.07223717859907379 0.002633594378130081 -2.346831505674788e-29)
(0.07187126905085832 0.002554783826309653 -4.916245221417839e-29)
(0.07242250442424061 0.002576516539444318 -2.372369534825621e-29)
(0.07206789365977059 0.002508065849471939 6.462992261971209e-32)
(0.0725903532236485 0.002506537986922899 1.128497490103554e-29)
(0.07224882245459371 0.002450452257629906 -2.322506914561595e-29)
(0.07274068222025638 0.002426584320063548 1.128498257293638e-29)
(0.07241948315965609 0.002381087907798584 -1.109190992347452e-29)
(0.0728732798429743 0.002338573655181293 1.018096809178895e-29)
(0.07257134200165087 0.002305600121451307 0)
(0.07298823056734167 0.00224599278397837 2.006312649793629e-29)
(0.07271197186005857 0.002221798574025128 1.018096635285481e-29)
(0.07308640050084113 0.002150318524433825 9.88215800891813e-30)
(0.07283382053400998 0.002136582763426284 3.052111693000005e-29)
(0.07316978167372433 0.002054037958984806 2.274470585078251e-31)
(0.07294568944031581 0.002046342726210317 0)
(0.07324113260483327 0.001960867836323756 -8.948703498427417e-30)
(0.07303813800611629 0.001958463419904004 -9.423815965811613e-30)
(0.0733011253814133 0.001869671621493054 -9.176155745339153e-30)
(0.07312694745072973 0.001871152966933353 1.000370891981719e-29)
(0.07334569400479138 0.001782842702523361 -9.023443917766411e-30)
(0.07319776248911689 0.001790125344857643 -1.877310893418776e-29)
(0.07337758557309729 0.001701464891522231 -3.424832337416234e-31)
(0.07325796967540595 0.0017121431860535 1.863582571065828e-29)
(0.07339933474579503 0.001626488504203278 8.680969268013349e-30)
(0.07330876487626033 0.001638826651652426 8.68096182595105e-30)
(0.07341182061416135 0.001557718856594249 -1.487604349392672e-31)
(0.07335190631355187 0.00157160356437991 0)
(0.07341801599326082 0.001493843951010807 -1.487604959674683e-31)
(0.07338924143128212 0.001508004972065142 8.397739032700353e-30)
(0.07341970818087784 0.001435917860469674 4.09137468840847e-30)
(0.07341635876349979 0.00144819508299505 8.562898997050321e-30)
(0.07341631791319385 0.001384798132934628 4.091376100127262e-30)
(0.07343904830772854 0.001395569439123492 1.251342327831814e-29)
(0.0734082006264392 0.001339698097610595 -4.030239219576533e-30)
(0.07345717167802251 0.001348437704683235 -8.285381074690857e-30)
(0.07339624768156315 0.001299776043863282 -4.030240329309568e-30)
(0.07347241000487834 0.001306895189442531 -8.273497574139994e-30)
(0.07338099839588655 0.00126486415370963 3.877519823310515e-30)
(0.07348214801811392 0.00127052761839411 0)
(0.07336330907730088 0.001233607301834245 3.877520605978381e-30)
(0.07349316174138275 0.001239050915558274 7.826003385188106e-30)
(0.07334125551458101 0.001205929646873788 0)
(0.07349844387580071 0.001210763472770282 0)
(0.07351064606546791 0.001185624914559048 0)
(0.07331859554128722 0.001178899513579396 -2.045978145552909e-26)
(0.06806423290786655 0.0004078612072797716 -4.069871773757572e-29)
(0.06803146349580468 0.0001848960822233068 0)
(0.06819245504732326 0.0007855997484709567 -8.447004340227578e-31)
(0.06809293244172246 0.00055130155735603 3.444489873149342e-29)
(0.06836889540518445 0.001110518952495532 2.267322576029177e-30)
(0.06822502093301663 0.0008807554395316673 3.985407230161423e-29)
(0.06856978300956691 0.001381847460301233 -3.758680411188817e-29)
(0.06840150539748041 0.001160570718066069 -7.410464290689775e-29)
(0.06878413935150594 0.001609313899710742 7.247973373774409e-29)
(0.0685970988947434 0.00139739535398784 0)
(0.06900684993724997 0.001802011215335582 7.247979773679838e-29)
(0.06879960108430341 0.001598788278894906 3.790834497589455e-29)
(0.06923534162308551 0.001964785120194791 0)
(0.06900991793365981 0.001772186077832602 0)
(0.06946518245823746 0.002101035445785101 -4.94196980720908e-31)
(0.06922511084203614 0.001918418968812348 0)
(0.06969620872658734 0.002214400088363792 -4.941973969562068e-31)
(0.06944429348821839 0.002041892851562652 -6.499728332132124e-29)
(0.06992763146416971 0.002307364462693276 0)
(0.06966371243787554 0.002144431100021612 0)
(0.07015981574393634 0.002381455761143395 -3.038600132234908e-29)
(0.06988492631280319 0.002228722303827014 0)
(0.07039126561292477 0.002437270003561315 -5.960167086113335e-29)
(0.07010557816721559 0.002294793151179365 -4.535500170500552e-31)
(0.07062139519989598 0.002475318007313228 -2.921566820189574e-29)
(0.07032660071214887 0.002343854088977916 -4.783248913658756e-31)
(0.07084865639523674 0.002496081208026264 0)
(0.07054472988035047 0.002376031227485929 0)
(0.07107223967952937 0.00250053690014571 2.6388799613299e-29)
(0.07076086425249518 0.002392256135511044 0)
(0.07129020132685508 0.002489534866706256 2.638881929357314e-29)
(0.07097160302976936 0.002393098012030574 2.638880087267479e-29)
(0.07150019544498352 0.002465090099615776 -4.935433230173581e-29)
(0.07117750696030675 0.002379221573627743 0)
(0.07170216018734375 0.002428878892246909 -2.562373931708644e-29)
(0.07137465113384446 0.002352803990116762 -2.436123757593609e-29)
(0.07189522509106053 0.002381649097794545 5.055937338814089e-31)
(0.07156508154207696 0.002314985881213614 2.373062729720067e-29)
(0.07207847639062522 0.002324188522996957 -4.539592475274531e-29)
(0.07174590287385053 0.002267186090950093 2.437268441119225e-31)
(0.07224998213626482 0.002258347966769327 -2.217087249609449e-29)
(0.07191850161325258 0.002209567674808822 -2.21708555095774e-29)
(0.0724102107692937 0.002185991425098067 0)
(0.07207945019916508 0.002145357494797688 2.215618684618661e-29)
(0.07255727103511429 0.002108910843491959 2.063894999687134e-29)
(0.07223080696471018 0.002074724989291428 0)
(0.0726927662123804 0.002029275511936685 2.063896251497332e-29)
(0.07236999373289868 0.002001074978815852 -1.275235734349517e-31)
(0.07281438698193501 0.001948945193919907 -9.610882839713137e-30)
(0.07249946346900223 0.001924710251174736 2.046747852525951e-29)
(0.07292360124716646 0.001868605619524254 9.568952286288488e-30)
(0.07261618291451044 0.001849238379327188 -9.61088045465356e-30)
(0.07302123541098481 0.001790567609955874 4.067580580055877e-31)
(0.07272410239846991 0.00177350890841126 -4.650472369935854e-32)
(0.07310980075397204 0.001716781990267072 8.645417483737343e-30)
(0.07282136158172184 0.001701550929392203 1.903292514805897e-29)
(0.07318967185105066 0.00164670947886441 2.741853330181571e-29)
(0.07291166726224496 0.00163226386780028 2.796974593783018e-29)
(0.07326180784501134 0.001581604095324673 0)
(0.07299360140479363 0.001566683245614159 0)
(0.07332796431751905 0.001520952330202734 8.562815013050971e-30)
(0.07307013316741458 0.001505440394674086 0)
(0.07338621278024514 0.001463603865686262 1.712571005061419e-29)
(0.07314230070175445 0.001449750666108644 1.74012006942796e-29)
(0.07343602426330804 0.001410407078552885 1.698493817424912e-29)
(0.07320559335709707 0.001398378648367228 8.637930578332374e-30)
(0.07348018076554379 0.00136202697693106 1.366722404533935e-31)
(0.07326410878462336 0.001351408670377782 -9.171030002850215e-32)
(0.07352086413993425 0.001318528285319403 -1.240883997008211e-29)
(0.07331958873434694 0.001307750580782003 8.458157081732244e-30)
(0.07355817847161236 0.001280026413945367 -4.12346455122345e-30)
(0.07337136266683822 0.001269577583233423 4.129489763045349e-30)
(0.07359415203916068 0.001245872830776891 3.948482655510514e-30)
(0.07341959638693644 0.001234551077084643 8.103934605797756e-30)
(0.07362929037436436 0.001216075774589845 3.948483439107178e-30)
(0.07346732720003665 0.001203909824173791 -3.980191317047972e-30)
(0.07366362874086815 0.001190578844757237 0)