/*--------------------------------*- C++ -*----------------------------------*\
| =========                 |                                                 |
| \\      /  F ield         | OpenFOAM: The Open Source CFD Toolbox           |
|  \\    /   O peration     | Version:  2206                                  |
|   \\  /    A nd           | Website:  www.openfoam.com                      |
|    \\/     M anipulation  |                                                 |
\*---------------------------------------------------------------------------*/
FoamFile
{
    version     2.0;
    format      ascii;
    arch        "LSB;label=32;scalar=64";
    class       surfaceVectorField;
    location    "3";
    object      Uf_0;
}
// * * * * * * * * * * * * * * * * * * * * * * * * * * * * * * * * * * * * * //

dimensions      [0 1 -1 0 0 0 0];

internalField   nonuniform List<vector> 
35915
(
(0.06664041506911805 0.001416129785535362 0)
(0.06730279673444343 0.001377586947681587 0)
(0.06451909253186905 0.001894174734886797 -1.144084282907648e-29)
(0.06713681393513579 0.002121336887079531 0)
(0.06225119391155286 0.002013354777647263 -1.144085417337786e-29)
(0.06646902864567167 0.002267924909756111 -2.013670329721873e-29)
(0.05990092885661494 0.00207490572362108 0)
(0.0653131230747173 0.002350302189464637 0)
(0.05746657769012405 0.002109637518204617 0)
(0.06403411897551442 0.002434399370882562 2.039645377007483e-29)
(0.05498569814055589 0.002112151839640839 0)
(0.06271755468839488 0.002480938614640456 0)
(0.05248787326870814 0.002086435007715267 0)
(0.06134714291012974 0.002497894268838813 -1.884951530201255e-29)
(0.0499969377819773 0.002040515843161021 0)
(0.05991818209843775 0.002491014473741825 0)
(0.04752842548948724 0.001980162026468531 0)
(0.05844380100050905 0.002468600119520471 0)
(0.04509331858829574 0.001910412537519846 8.210663802531769e-30)
(0.056942073966264 0.00243520283373366 0)
(0.04269746157751845 0.001838232624530404 8.210671166533251e-30)
(0.05542422163710461 0.002395960392556778 2.424054979148972e-30)
(0.04034008662058076 0.001744053591843573 -7.564772617795165e-30)
(0.0538930995106024 0.002357485307276716 0)
(0.0380339693807027 0.001595425567423853 -3.351488902954865e-31)
(0.05236971871459509 0.002306233645915127 -8.969292141979878e-31)
(0.03580970118937062 0.001418043705203545 1.411157970573192e-29)
(0.05081875504626576 0.002224388814913309 1.345635957453264e-29)
(0.03368955141847301 0.001248555364200432 1.343130252967104e-29)
(0.04931773603745759 0.002120273014425856 -1.435985798897527e-30)
(0.03168563192067819 0.001088934450923507 3.109516150965061e-31)
(0.04784693462263698 0.002004043945901892 -1.713520248994653e-30)
(0.02980713500720807 0.0009379589404432355 -2.907875934605047e-31)
(0.0464107050859037 0.001878621189685603 1.802253131929785e-30)
(0.02806210586894197 0.0007935360853540775 2.695922598985143e-31)
(0.04502443174061184 0.001745151884473723 -1.757790815551029e-30)
(0.02645677395221228 0.0006564109183688377 -1.1110803862801e-29)
(0.04369803751564326 0.001605451830709905 -9.753241705735236e-30)
(0.02499641454805545 0.0005294005140660073 -5.43276616070478e-30)
(0.04243766638833605 0.001460475208928047 6.822712462966315e-30)
(0.02368373402875537 0.0004144387259558561 0)
(0.04124428245910403 0.001312791057011298 0)
(0.02251317773237258 0.0003133747074895153 0)
(0.04012603678391343 0.001170660910654592 5.049530202280666e-30)
(0.02147634113868256 0.000226383943287047 0)
(0.03908191839678931 0.001036934873499429 4.878877914597096e-30)
(0.02056505326923943 0.0001526451557005778 0)
(0.03811391011497635 0.0009113794922274601 0)
(0.01977044629566031 9.110828158426007e-05 0)
(0.03721768188174501 0.000794691748025755 0)
(0.01908201604594879 4.095797145326566e-05 2.190605128663887e-30)
(0.0363924416962716 0.0006885081913359714 4.498203067730635e-30)
(0.01848883125494459 9.020374932594864e-07 4.346315370246463e-30)
(0.03563059329881731 0.0005932560393392594 -4.311857414664677e-30)
(0.01797924669764713 -3.076960988544782e-05 2.155710159831736e-30)
(0.03493251865858139 0.0005096494119066435 1.740176981850984e-31)
(0.01754256660138595 -5.510672331524164e-05 -2.102760883768448e-30)
(0.03428777148221488 0.000436738879115911 4.269887155603133e-30)
(0.01716818613352437 -7.274020648079423e-05 -2.102761994309173e-30)
(0.03369810191561216 0.000374433595022766 -2.446275966941448e-31)
(0.01684674888705686 -8.441524569762336e-05 0)
(0.03314996763175673 0.0003214851100610613 0)
(0.01656876325731627 -9.087763141394362e-05 0)
(0.03264988284421118 0.0002780287203866619 -4.123778304887746e-30)
(0.01632626032273148 -9.319173369421623e-05 -2.028667545744066e-30)
(0.03217852640353992 0.0002425416703599045 -4.082521233380941e-30)
(0.01611185724006556 -9.228239387473312e-05 -2.028668331506178e-30)
(0.03174891944957112 0.0002144379118933606 -2.59281250868457e-31)
(0.01592001743657618 -8.903090040887042e-05 9.967794013044111e-31)
(0.03133475887216465 0.0001918710464708654 0)
(0.01574556255634556 -8.38515335469584e-05 1.98409220430261e-30)
(0.03096065794534086 0.000174482893284466 1.204374141485999e-31)
(0.01558415055025406 -7.767889066630633e-05 9.683937039127143e-33)
(0.0305865762028339 0.0001614370715955234 1.157490460615361e-31)
(0.0154328002728438 -6.771494576189973e-05 -9.776290421978392e-31)
(0.03025923553710168 0.0001513726320475403 -2.055397954792477e-30)
(0.01528352145555338 -5.3084232389024e-05 0)
(0.02989838689128138 0.0001492990765319257 -9.579635500454648e-31)
(0.02964654833550794 0.0001525735815235367 0)
(0.01513096463061234 -3.771147212122148e-05 0)
(0.0686010575373411 0.00175861182942636 0)
(0.06815123054559172 0.0007945306395498298 0)
(0.06910661429795452 0.002348340848655202 -1.092971876086885e-29)
(0.06862552725148761 0.001615781654072314 2.261538467031247e-29)
(0.06933106375891834 0.002568853632741795 -1.09297294504605e-29)
(0.06915865757581162 0.002043481596919527 -1.476309719197053e-29)
(0.06937242364332451 0.002696006114700237 2.039644213864381e-29)
(0.06944989408258688 0.002308954311068198 0)
(0.06929416782375181 0.002807484056473499 2.039646157396777e-29)
(0.06958801712872262 0.002512673069093873 -8.444232285060637e-31)
(0.06908973781034959 0.00289415847283778 -1.884950393986254e-29)
(0.06966674796417621 0.002685393171992533 0)
(0.06877301180381439 0.002949516720184291 -1.88495214382446e-29)
(0.06965507331075629 0.002814651791598751 2.167686408648105e-29)
(0.0683557808265647 0.002975179565082943 0)
(0.06960443788207657 0.002908284426612928 -1.783532706692673e-29)
(0.06785343101823006 0.002982825688781862 0)
(0.06946407705330944 0.0029709962922778 0)
(0.06727289054986357 0.002979944564796692 -8.134014733117347e-30)
(0.06925764245723803 0.003015797128910843 0)
(0.0666206145549581 0.002969819302435426 -8.134021887696905e-30)
(0.06899777218246571 0.003048297717705995 -2.414389196386365e-29)
(0.06591341595908194 0.002955229343611872 7.483953354621803e-30)
(0.06868692057851933 0.003064752354017506 0)
(0.06515354240819364 0.002934452649110856 1.458661721691401e-29)
(0.06833258642241695 0.00306618271044137 7.483954471850595e-30)
(0.06434290835229911 0.002896856694006957 3.020609278387238e-31)
(0.06793475961786061 0.003035105458777597 -7.240065633671574e-30)
(0.06347910582186551 0.002834583689811705 -1.326948317992735e-29)
(0.06749363594511411 0.002984165164537108 -6.80060307929205e-30)
(0.06257119060830824 0.002748025233484298 -3.096272131031602e-31)
(0.06700746590702378 0.002912055321685582 -6.468875349076025e-30)
(0.06162891155238855 0.002639595861682428 2.890750457851226e-31)
(0.06648057723119533 0.002821002338613543 6.159253170990644e-30)
(0.06066218059747647 0.002513077087370969 -1.164764040631886e-29)
(0.06592047585934271 0.002711990136303324 -5.870182835548226e-30)
(0.05967899528881986 0.002370448008897717 5.038624895852962e-30)
(0.06533400879609316 0.002588748915299044 -1.092792881167567e-29)
(0.05868527222748139 0.002212014007492943 1.081609029154017e-29)
(0.064728001119083 0.002454313844558597 1.881925097688824e-29)
(0.0576871930045215 0.00204430506113233 5.049525593314959e-30)
(0.06409977121771464 0.002310988881764984 0)
(0.05669473137311022 0.001875322968163633 9.928402555689086e-30)
(0.06345831877687105 0.002163243145086558 1.213999563633462e-29)
(0.05571833796123344 0.001708082206512468 4.878876741118106e-30)
(0.06280800024546308 0.002013449768212328 1.607731756740032e-30)
(0.05476475182052225 0.001544205957464519 0)
(0.06215661832907755 0.001865087044607461 -9.6731159894646e-30)
(0.05383710436109215 0.001387572922139493 4.498198615992626e-30)
(0.0615056548255586 0.001722459790643651 -9.412626346367275e-30)
(0.05293858864188444 0.001241475357744344 -2.071572291650384e-30)
(0.06086124866026829 0.00158714291230444 9.590491112471987e-31)
(0.05207182708896059 0.001107292257257403 -8.696831410963199e-30)
(0.06022337628802939 0.001460134298102538 6.100423050877929e-30)
(0.05123884256757355 0.0009854798539265708 2.142827755152138e-30)
(0.05959924993176549 0.001342747688661243 -2.127052919869619e-30)
(0.05044076286689996 0.0008763918680124451 6.345380456177798e-30)
(0.05898599910731537 0.001234928802320122 8.959935324056895e-30)
(0.04967792461335187 0.0007798216566626775 2.075496465679632e-30)
(0.0583923920932523 0.001137378048361856 6.348866783242814e-30)
(0.04895111432332398 0.0006956587339912355 -4.123773923184425e-30)
(0.0578091551886205 0.001048397063940882 4.213729416749726e-30)
(0.04825864469149814 0.0006233422155442095 -8.206292635734229e-30)
(0.05724996749923876 0.0009705951998321775 2.302956590651098e-31)
(0.04759962880590526 0.0005619231241868832 -2.07870380243349e-30)
(0.05670010123017648 0.0009016492650925326 3.556163049750123e-31)
(0.04697176710359211 0.0005099907403949581 2.003815499347304e-30)
(0.05617851745129481 0.0008423860322972823 2.003813498185892e-30)
(0.04637388352286345 0.000466354338627958 -9.849130740299203e-31)
(0.05566093380450875 0.0007898355248009186 0)
(0.04580272977416297 0.0004303526831462691 -1.960635371837576e-30)
(0.0551769857406047 0.0007457120219596732 -9.849123921068915e-31)
(0.04525694975107536 0.000400762084732014 -1.95110466777017e-30)
(0.05468587676698528 0.000707286810981448 -9.757212973972822e-31)
(0.04473268167774425 0.0003779940736453306 -1.933345173924586e-30)
(0.05424291281085374 0.000675704899588597 1.223079462964626e-30)
(0.04423331170927668 0.0003636747770421907 -9.579627092502709e-31)
(0.05375590894331893 0.0006487272447974123 1.462295234837517e-31)
(0.05339654391338627 0.0006311255106792278 0)
(0.04375480795378416 0.0003571867278263937 0)
(0.06835123376086337 0.0008256354490000016 2.261537289358657e-29)
(0.06809246822773385 0.0004612957496617042 -4.330881523486529e-29)
(0.06881323697475808 0.001410080799660539 2.338180158704951e-29)
(0.06838212126410381 0.001153774341335043 -7.446615518548538e-30)
(0.06924951430234384 0.001817420200003942 7.664073159379955e-31)
(0.06880272435829299 0.001607198292531869 -1.242459413826541e-29)
(0.06962481515560427 0.002125591952493872 -2.039371093675857e-29)
(0.06921028227459745 0.001933647570075033 0)
(0.06995373281165489 0.002374251874271969 -2.039373007823025e-29)
(0.06953553098502918 0.002183750096043239 -2.039371876736482e-29)
(0.07023806669985118 0.002574989762411543 3.733645573630045e-29)
(0.06984550404709619 0.002401055092321201 0)
(0.07048831973113204 0.002727540793450855 1.950117364864718e-29)
(0.07011788199949594 0.002564396025054992 1.773494930691343e-29)
(0.07070284841887781 0.002852326227156705 -1.783533224429161e-29)
(0.07039593161146464 0.002693755007275476 -2.854963626587236e-32)
(0.07086561127844714 0.00295228128531823 0)
(0.07062906748500528 0.002808235483155351 0)
(0.07098320360526009 0.003031791644636443 -1.600986486133004e-29)
(0.07082669194548137 0.002898209882827487 0)
(0.07106199127052149 0.003092228791515165 -1.600987867487107e-29)
(0.07100668924307471 0.002969518409276111 -8.722931504304251e-31)
(0.07110713102436045 0.003135551635530061 0)
(0.07115469339125136 0.003019624310932577 0)
(0.07111742197896032 0.00315046589558362 -1.421158319502452e-29)
(0.07128749858934638 0.003055907150826249 0)
(0.07108989036618599 0.003133958433789238 -1.421159489899273e-29)
(0.07138729894558027 0.003062656408793233 -1.421158482124437e-29)
(0.07102336447948246 0.00309537423169914 0)
(0.07147055350821988 0.003050714653686307 0)
(0.07091618491107357 0.00303361304475846 0)
(0.07151290433634015 0.003019262921766872 0)
(0.07077103757944378 0.002950445722397944 0)
(0.07154495543986389 0.002966182298433942 0)
(0.0705933212046353 0.002848025682015269 -2.422600519798276e-31)
(0.07153703728823035 0.002889743475661424 -2.436080631403598e-29)
(0.07038351170077109 0.002731910898643822 5.446651829722407e-30)
(0.07149780256278418 0.002798599668502521 1.307610254165717e-29)
(0.07014280987746468 0.002607500235748266 5.688916225468006e-30)
(0.07143076056435968 0.002695061083392418 -1.845229274098297e-29)
(0.06987174224425556 0.002477698340938963 5.294100446516974e-30)
(0.07133508456318881 0.002582105991988303 0)
(0.06957169423403847 0.002343359892240688 4.426590083901586e-31)
(0.07121063393774518 0.002463344476148804 -6.196264705325201e-30)
(0.06924569976814179 0.002207152002210891 -1.452455549359473e-29)
(0.07106088815646237 0.002339501059053715 -1.506096548798585e-29)
(0.06889670013139454 0.00207469331202237 -1.908573097257933e-29)
(0.07088738318609507 0.002214146611247101 1.063304094107776e-29)
(0.06852855203685559 0.001947908338071392 -1.388234693569721e-29)
(0.07069256512943525 0.00209067043458938 3.245809316959047e-31)
(0.06814494253924155 0.001826102203865242 8.902373833323701e-30)
(0.07047936767629899 0.001970817054393707 -4.469722105659003e-30)
(0.06774926822117071 0.001710091198663684 1.337210776021769e-29)
(0.07025044838548911 0.001855874827231212 4.787995392733506e-30)
(0.06734550401170412 0.001601110028763476 4.437499445873317e-30)
(0.07000895749344445 0.001746579066205226 0)
(0.06693611557532564 0.001499994707651276 8.710869890512511e-30)
(0.06975778139848883 0.001644384850619309 -3.455084599709333e-30)
(0.06652282194009916 0.001405683017128701 8.487095422753511e-30)
(0.06949999584129839 0.001550739245286196 9.122076158821138e-30)
(0.06610694227964908 0.001318887646773619 8.307578028412277e-30)
(0.06923411914568585 0.001464343782194823 -8.181948927219908e-30)
(0.0656913849676049 0.001240870329217846 8.146335916248139e-30)
(0.06896467859108152 0.001386218470497564 4.093848774386071e-30)
(0.06527772189948253 0.001171693842565124 4.052484881751604e-30)
(0.06869025297660959 0.001315376723038797 4.052481048138569e-30)
(0.06486796506041573 0.001110575001112263 0)
(0.06841700969366116 0.001252205166120057 0)
(0.06446247971753581 0.001056887860792801 0)
(0.06813967216610643 0.001195380709870461 0)
(0.06406188578694479 0.001009578318864854 0)
(0.06786767147575633 0.001146362945881647 0)
(0.06366613196276721 0.0009686753994847422 1.926727545245928e-30)
(0.06758831561442193 0.00110309449455905 3.950612987820773e-30)
(0.06327395639757449 0.0009320365146093368 2.877265475799319e-30)
(0.06732468598107233 0.001067930987389052 -1.971728714978093e-30)
(0.06289155664542979 0.0009001962869168477 9.505376769723715e-31)
(0.06703279144449655 0.001031173455496226 9.505368314227187e-31)
(0.066812129276538 0.001000880271073171 0)
(0.06252183990167266 0.0008691661244861372 0)
(0.06817490751839632 0.0007107555254003723 -6.593007694454872e-29)
(0.06805468763135451 0.000304387533256095 -5.922514230099724e-30)
(0.06846368350850454 0.001263352762555595 -4.245053503239738e-29)
(0.06821083938485845 0.0008649952400011278 1.811895231730272e-29)
(0.06878006266063248 0.00165482086013314 -1.982929100580637e-29)
(0.0684804499774723 0.001290813599823558 1.528007552580175e-29)
(0.06910031581815147 0.001945096791807436 0)
(0.06878573490927307 0.001613387053584735 -3.882636289363644e-29)
(0.06941440191600774 0.002177187581432184 0)
(0.06907980564507411 0.001869655546546004 0)
(0.06973033249478207 0.002369649589245416 -1.850384350781596e-29)
(0.06936333766138286 0.002085114915890702 -3.670643391921944e-29)
(0.07002971270561702 0.002523993158506814 -6.636660957747132e-31)
(0.06964950329076841 0.002265005781278561 -1.850384946615335e-29)
(0.07031389173801657 0.002650000537679104 1.784020982814676e-29)
(0.06992588386732167 0.002409565466110367 1.784019926639118e-29)
(0.07058854128537072 0.002756175694202832 0)
(0.07019987617100769 0.002533575282334233 -3.353672769532137e-29)
(0.0708510198177887 0.002843252106420275 1.601124309779787e-29)
(0.070459926173323 0.002635720838960506 0)
(0.07109959223647619 0.00291035676287229 1.601125665207167e-29)
(0.07072171310044893 0.002720935922343945 1.60112463745261e-29)
(0.07133489249097838 0.002957298895819346 0)
(0.07096744963408559 0.002784314592080278 0)
(0.07155995955587942 0.002984104077270312 0)
(0.07121640499947593 0.002830831355112408 0)
(0.07176859285723063 0.002988039049341749 0)
(0.0714466589524155 0.002854015461871299 0)
(0.07196231549198757 0.002971433304100944 0)
(0.07167770321550121 0.002856985624082916 0)
(0.0721429327667108 0.002936469441609679 0)
(0.07187914294846409 0.0028386405146648 0)
(0.07230720860622136 0.002884597035209678 -2.436078724467108e-29)
(0.07208627513642031 0.002801902916329311 -2.550240147521173e-29)
(0.07244201921232454 0.002818780041487313 -1.279851181987575e-29)
(0.07226163783581695 0.002754931581990484 -2.52918695865943e-29)
(0.07254722179909281 0.002740088506541046 -1.08511056803483e-29)
(0.07241734902851815 0.002693398237572719 1.156229307372425e-29)
(0.07262398230053706 0.002649892291515771 -2.241342377449037e-29)
(0.07255019869270099 0.002618304235547055 -1.158305294979904e-29)
(0.0726746759399331 0.00255134187565448 -1.030366557767918e-29)
(0.07266380576990142 0.002531418507162226 2.221877821718479e-29)
(0.07269982962295568 0.002446121325242126 -2.051318498719422e-29)
(0.07275141476723372 0.002438199460343491 -1.030366404995009e-29)
(0.07270258832233516 0.002335931893495987 9.360338530378549e-30)
(0.07282179432897104 0.002336753433785242 -8.336076200722057e-31)
(0.07268198726577742 0.002223429255548446 2.896665138121896e-29)
(0.07286892527606496 0.00223476118489629 1.050029689131428e-29)
(0.07264293500920306 0.002111700737157164 9.396787030790445e-30)
(0.07290088477961826 0.002129738370405578 -1.03635337276118e-29)
(0.072583933708598 0.002003256265863816 -8.974668576701429e-30)
(0.07291136072603971 0.002029836198400861 -9.638388236317814e-30)
(0.07250865399305172 0.001898615026449223 -8.974673647567317e-30)
(0.07291443275819799 0.001931174303335757 -1.839779541042837e-29)
(0.07242052639712884 0.001798441672617469 -8.658767979449404e-30)
(0.07289798827095439 0.001834727962315163 -9.23250666297642e-30)
(0.07232086065565355 0.001704816054813613 -4.205940987726934e-30)
(0.07286876831826593 0.001744073196713908 -8.65876466973884e-30)
(0.07221100545450138 0.001619103116441944 -8.327246365770139e-30)
(0.07282956023466358 0.00166061810124232 -4.171222222008218e-30)
(0.07209124120430867 0.001541175200246371 -1.278008570741915e-29)
(0.07278067538012836 0.001584132548436409 4.468925801723181e-30)
(0.07196324135344045 0.001470414914728223 0)
(0.07272318945027051 0.001514243385211173 0)
(0.07182871427926202 0.001405749337107854 0)
(0.07265901704761754 0.001449929092918001 -8.465504420678408e-30)
(0.07168872694523028 0.001346738889122935 0)
(0.07258963964804876 0.001392217729428321 0)
(0.07154377693475383 0.001294222496208447 0)
(0.07251538280671622 0.001340355639397242 -8.213809548614205e-30)
(0.07139518880572428 0.001249188875159162 3.950609276754391e-30)
(0.07243702229625487 0.001294975348372334 0)
(0.07124299767149375 0.001211254286544668 5.215895474296544e-32)
(0.07235442628121262 0.001255309051571305 3.947052510066213e-30)
(0.07108955899596373 0.001176705157858547 -3.898452088708448e-30)
(0.07227074455559092 0.001221391810860832 -4.793745628584252e-33)
(0.07093201132797709 0.00114461791549231 0)
(0.07217920646831905 0.001188742047860536 0)
(0.0721056918619741 0.001163000158944802 0)
(0.07076990879915582 0.0011123801087186 -2.294018086739213e-26)
(0.06809126052623778 0.0004997327089556567 8.405178310624181e-29)
(0.06803819930464158 0.0002311266525332512 4.331157886657088e-29)
(0.06827674383966938 0.0009347878876809273 8.216928220973567e-29)
(0.06812969167702766 0.0006795100063629606 -1.756443899612991e-30)
(0.06851038548000464 0.001285651450954028 2.602756999061131e-30)
(0.06831367449638641 0.001057168113080155 2.984388593733022e-30)
(0.06876234914783148 0.001569224291410694 -3.882637810328119e-29)
(0.06854404767713772 0.001361417837186768 3.7346326656291e-30)
(0.06902029592006792 0.001803787754318243 -3.670641334224334e-29)
(0.06878469308465389 0.001611701851439 0)
(0.0692839582113086 0.002001492480665933 -3.670644626967289e-29)
(0.06902311641306599 0.001821444397618531 -3.276230166761842e-29)
(0.06954833031525537 0.002167225915193437 0)
(0.06926824096879025 0.002000624285529725 0)
(0.06980967263138094 0.002306103921805805 -3.353670733393108e-29)
(0.06951337867131982 0.002148212800871547 -3.39992634044583e-29)
(0.07007035404543945 0.00242332205817213 -3.353673608051701e-29)
(0.0697614519128141 0.002272882612799405 1.988951700080937e-30)
(0.07033023227143514 0.002520601394055891 0)
(0.07000554442411837 0.002375830574765538 0)
(0.07059025797648198 0.002598879288252942 0)
(0.07025284290252835 0.002460897414458193 -3.115285100076848e-29)
(0.07084831233763521 0.002658177401775721 0)
(0.07049674263836124 0.002526246869088753 0)
(0.07110513165353856 0.00269888706414722 0)
(0.07074268023583187 0.002573998113963792 0)
(0.0713558190767561 0.002721294162550947 0)
(0.07098298922839963 0.002603313871130091 0)
(0.07159692651599242 0.002725351707832512 0)
(0.07122111322136183 0.002615863930086355 0)
(0.07182446952568415 0.00270973404676168 -2.550238245832247e-29)
(0.07144709566565353 0.002611083547484 2.652518843921639e-29)
(0.0720371227815375 0.002678153729641957 -2.57576158452065e-29)
(0.07166679124059655 0.00258923602864715 1.926972285942346e-31)
(0.07223725717410269 0.0026335908747297 -2.552145349523373e-31)
(0.07187134960201329 0.002554784004511426 -3.941666700082593e-31)
(0.07242258318103036 0.002576508586974063 1.130555193271001e-29)
(0.07206797352304783 0.002508059777039572 0)
(0.07259043446755099 0.00250652772990231 3.352431999635177e-29)
(0.07224890395662638 0.002450441482768537 3.458352809973168e-29)
(0.07274076787241689 0.002426573873471178 2.22187752811233e-29)
(0.07241956808549832 0.002381074783733657 -2.12009628763477e-31)
(0.07287337104223469 0.002338565696910348 1.020881691325054e-29)
(0.07257143256108477 0.002305587246328001 2.189328437766977e-29)
(0.07298832697422243 0.002245990059494058 2.983809295714447e-31)
(0.07271206807299421 0.002221789838729198 1.020881517210749e-29)
(0.07308650101149325 0.002150323190301901 -2.967074421118337e-29)
(0.07283392195724489 0.002136580888917801 -3.060579893475766e-29)
(0.07316988364787462 0.002054052050958535 -2.939868713915492e-29)
(0.07294579414040729 0.002046350841116285 5.095505084250256e-31)
(0.07324123310842895 0.001960892037865795 -1.906150664111232e-29)
(0.0730382424307213 0.001958483059102943 1.972416239983427e-29)
(0.07330121986452826 0.001869705401386456 -1.865562490974134e-29)
(0.0731270493568303 0.001871185074774667 -1.587249741986431e-32)
(0.07334577770069604 0.001782884509154148 -9.232503253889828e-30)
(0.0731978555930579 0.001790169104067471 1.858121495599275e-31)
(0.07337765535367177 0.001701513319216462 -8.712048298808009e-30)
(0.07325805066230644 0.001712195797203035 1.845531047273244e-29)
(0.07339938881804128 0.001626541045254188 8.592630572458709e-30)
(0.07330883088226829 0.001638885969866076 -1.776281384994399e-29)
(0.07341185841027439 0.001557772642828149 1.730469059796866e-29)
(0.07335195533720808 0.001571665274311928 -4.824178155994279e-31)
(0.07341803724307069 0.001493897572266324 -8.465496729461695e-30)
(0.07338927076322095 0.001508067605750856 -8.737358020240837e-30)
(0.07341971362822849 0.001435969365488434 -8.465499929759378e-30)
(0.07341637225136419 0.001448256269929017 -1.842052481745321e-31)
(0.07341630903217786 0.001384845932906951 -8.213802151931153e-30)
(0.07343904539777543 0.001395626358468467 8.455116566172157e-30)
(0.07340817927260122 0.001339742002055742 -8.213804701971466e-30)
(0.0734571543020458 0.001348489790317069 8.092914472615449e-30)
(0.0733962162661442 0.001299816712825235 4.134284741266582e-32)
(0.07347238091403341 0.001306942950348349 0)
(0.07338095810562767 0.001264902953679696 3.936178766580746e-30)
(0.07348210812530905 0.001270571865624625 -3.875322640212638e-30)
(0.07336326070957493 0.001233646934486673 3.894836694028868e-30)
(0.07349311382750388 0.001239093760698285 3.8948335611823e-30)
(0.07334119956265024 0.001205971150862254 0)
(0.07349838890328472 0.00121080768892531 0)
(0.07351058484927861 0.001185670482282763 0)
(0.07331853256525546 0.001178942793951994 2.035604643107149e-26)
(0.06806423352493475 0.0004078516959451483 -4.074370698345836e-29)
(0.06803146374906602 0.0001848929299836764 0)
(0.06819245837241654 0.0007855751573106658 -7.918841496041226e-29)
(0.06809293400003096 0.0005512839682329351 -4.074372517096877e-29)
(0.06836890442487313 0.001110477964561356 3.878506116005329e-31)
(0.06822502625336446 0.0008807193720375129 -1.095446381989395e-30)
(0.06856980094076696 0.001381792460741458 3.883259124063117e-29)
(0.0684015181835189 0.001160517123902245 -3.426650069524046e-29)
(0.06878416908884692 0.001609249510867646 8.57083621645487e-31)
(0.06859712253091502 0.00139732815624358 0)
(0.06900689326310931 0.001801943294463687 8.5708437841622e-31)
(0.06879963790016072 0.001598713474895627 -3.465018691123158e-29)
(0.06923539898678745 0.001964719860813612 -3.399924361585913e-29)
(0.06900996914208743 0.001772110654608568 0)
(0.06946525313536721 0.002100978294045419 -4.543146334951089e-31)
(0.06922517627981728 0.001918349739021899 -1.097166919930293e-30)
(0.06969629068236625 0.002214354969516083 3.35449863276235e-29)
(0.06944437151163051 0.002041835185714749 6.612235936841575e-29)
(0.069927721989025 0.002307333500187265 -3.11528313874999e-29)
(0.0696638006154337 0.002144388510415699 0)
(0.07015991165610874 0.002381439043315833 -3.115285678984702e-29)
(0.06988502142527804 0.002228696104533615 -7.790232256689725e-31)
(0.07039136370509032 0.00243726575298843 0)
(0.07010567693978696 0.002294782389591974 -2.997979703525448e-29)
(0.07062149265933546 0.002475323032506438 0)
(0.0703266999911894 0.002343855967259403 2.911348117211595e-29)
(0.07084875112655589 0.002496091537624863 0)
(0.07054482721940847 0.002376041564150539 0)
(0.07107233046904782 0.002500548464125981 2.65251695443604e-29)
(0.07076095807417684 0.002392270171485671 0)
(0.07129028799717363 0.002489544007669294 5.203531535872599e-29)
(0.0709716927112459 0.002393111222817192 -1.593567470024061e-31)
(0.07150027889623967 0.002465094149256247 2.530772474400389e-29)
(0.07117759310047027 0.002379230118825783 2.55101264937862e-29)
(0.07170224228966617 0.00242887643314101 -2.024200764264602e-31)
(0.07137473518760318 0.002352805517274097 2.484204437287334e-29)
(0.07189530761350429 0.002381640200113929 2.327795899206213e-29)
(0.07156516565923064 0.00231497938847158 0)
(0.07207856160830377 0.002324174896293315 1.05322804325611e-30)
(0.07174598905586591 0.002267172620424439 -2.437467418949407e-31)
(0.07225007208388082 0.002258332441329149 -3.314947958054487e-31)
(0.07191859198529801 0.002209549820156442 -2.222474458611575e-29)
(0.0724103063954375 0.002185977753117543 2.189328096306615e-29)
(0.0720795463228974 0.002145338940322732 -2.244126030384389e-29)
(0.07255737240089327 0.002108902913404329 -2.069534130957997e-29)
(0.07223090889207319 0.002074710513419316 0)
(0.07269287192539951 0.002029277031840156 -9.312149463853648e-31)
(0.07237010110804841 0.002001068756091018 1.275401899246067e-31)
(0.07281449438740541 0.001948958876108867 4.90863030482824e-29)
(0.07249957356329662 0.001924716672692832 1.976413458903735e-29)
(0.07292370707583767 0.001868633006775358 3.874674372932963e-29)
(0.07261629328767555 0.001849259594472631 2.964331261284974e-29)
(0.07302133571890347 0.001790609008008658 1.865830376392027e-29)
(0.07272420858839586 0.00177354653626864 9.424572061916626e-30)
(0.07310989184414664 0.001716835944178295 2.768902330622144e-29)
(0.07282146026640389 0.00170160390572368 2.840416172234048e-29)
(0.07318974921225511 0.001646773130243393 9.404542457930944e-30)
(0.07291175383749192 0.00163233020744357 -1.855174574298681e-29)
(0.07326186846374697 0.00158167343697572 -2.66708499211794e-29)
(0.0729936726415108 0.001566759305856235 -1.861191698945645e-29)
(0.07332800541982663 0.001521023645086455 -2.635744272897531e-29)
(0.07307018679619297 0.001505521620609867 -2.707204552034113e-29)
(0.07338623461498293 0.001463674203895624 -2.717307572424065e-31)
(0.07314233298538639 0.001449832566723232 -8.997291140619646e-30)
(0.07343602901105005 0.001410473824308214 1.692073564142085e-29)
(0.07320560854459902 0.001398456921317672 8.465619482912226e-30)
(0.07348016934967197 0.001362088471545851 2.498759935560376e-29)
(0.07326410538505608 0.001351481752106811 -9.170395373323422e-32)
(0.07352083882329712 0.001318584321318238 1.653249222471462e-29)
(0.07331956967609238 0.001307816565594735 -2.782257434752819e-31)
(0.07355814114715521 0.001280077759395526 -3.988228960409288e-30)
(0.07337133051733241 0.001269637349774665 0)
(0.07359410488133204 0.001245920952962268 -3.98822989514856e-30)
(0.07341955302530739 0.001234605154073276 4.150283535402485e-30)
(0.07362923561812551 0.001216122908899157 0)
(0.07346727558569101 0.001203960262601017 4.001508807844028e-30)
(0.07366356842708463 0.001190627281797974 0)
(0.07351300213869064 0.001176472300804528 3.936279263029071e-30)
(0.07355761480671662 0.001155073418578583 0)
(0.07369416323744957 0.001166464221010118 0)
(0.06804886619605234 0.000335787073539348 0)
(0.06802753040131715 0.0001540266007365699 -7.300751561239659e-29)
(0.06813904250471542 0.0006537636894940069 3.844826713082962e-29)
(0.06807126480495732 0.0004611068335973783 7.278669635122979e-29)
(0.06827273644900869 0.0009375932821313093 -3.465073171062781e-29)