/*--------------------------------*- C++ -*----------------------------------*\
| =========                 |                                                 |
| \\      /  F ield         | OpenFOAM: The Open Source CFD Toolbox           |
|  \\    /   O peration     | Version:  2206                                  |
|   \\  /    A nd           | Website:  www.openfoam.com                      |
|    \\/     M anipulation  |                                                 |
\*---------------------------------------------------------------------------*/
FoamFile
{
    version     2.0;
    format      ascii;
    arch        "LSB;label=32;scalar=64";
    class       volScalarField::Internal;
    location    "3";
    object      V0;
}
// * * * * * * * * * * * * * * * * * * * * * * * * * * * * * * * * * * * * * //

dimensions      [0 3 0 0 0 0 0];

value           nonuniform List<scalar> 
18114
(
3.941648316484348e-07
3.94166026232885e-07
3.941672060240537e-07
3.941683712782061e-07
3.94169522229641e-07
3.94170659079869e-07
3.941717819903057e-07
3.941728910726288e-07
3.941739863788883e-07
3.941750678919108e-07
3.941761355161787e-07
3.941771890692076e-07
3.941782282736474e-07
3.941792527500626e-07
3.941802620105766e-07
3.941812554534442e-07
3.941822323586231e-07
3.941831918846029e-07
3.941841330664211e-07
3.941850548152246e-07
3.941859559193499e-07
3.941868350471858e-07
3.941876907518673e-07
3.94188521478008e-07
3.941893255705101e-07
3.941901012855837e-07
3.941908468039855e-07
3.941915602464994e-07
3.941922396916038e-07
3.941928831952343e-07
3.94193488812492e-07
3.941940546211075e-07
3.941945787464383e-07
3.941950593877475e-07
3.941954948456298e-07
3.941958835505058e-07
3.941962240924334e-07
3.941965152530046e-07
3.941967560400146e-07
3.94196919796316e-07
3.941648241691254e-07
3.94166003545131e-07
3.941671676083997e-07
3.9416831658755e-07
3.941694507055867e-07
3.941705701590906e-07
3.941716751077417e-07
3.941727656640065e-07
3.941738418832954e-07
3.941749037547417e-07
3.941759511925203e-07
3.941769840277579e-07
3.941780020011637e-07
3.941790047564007e-07
3.941799918342591e-07
3.941809626677976e-07
3.941819165784558e-07
3.941828527733222e-07
3.941837703436313e-07
3.941846682646132e-07
3.941855453968764e-07
3.941864004893452e-07
3.941872321839935e-07
3.941880390223691e-07
3.941888194540827e-07
3.941895718472544e-07
3.941902945010147e-07
3.941909856599969e-07
3.941916435307977e-07
3.941922663003133e-07
3.941928521558063e-07
3.941933993064644e-07
3.941939060063315e-07
3.941943705782767e-07
3.941947914388276e-07
3.941951671237392e-07
3.941954963143564e-07
3.941957778655764e-07
3.941960108380238e-07
3.941961705481384e-07
3.941648167932683e-07
3.941659811484253e-07
3.941671296537252e-07
3.941682625397681e-07
3.941693800327861e-07
3.94170482335308e-07
3.941715696151813e-07
3.941726419950506e-07
3.941736995427131e-07
3.941747422621566e-07
3.941757700852764e-07
3.941767828642422e-07
3.941777803646078e-07
3.941787622591225e-07
3.941797281223946e-07
3.941806774264653e-07
3.941816095372947e-07
3.941825237124288e-07
3.941834190997173e-07
3.941842947374287e-07
3.941851495556935e-07
3.941859823794763e-07
3.941867919331382e-07
3.941875768467399e-07
3.941883356640456e-07
3.941890668524472e-07
3.941897688146666e-07
3.941904399023336e-07
3.941910784313359e-07
3.941916826988699e-07
3.941922510020317e-07
3.941927816577438e-07
3.941932730238465e-07
3.9419372352095e-07
3.941941316548819e-07
3.941944960392061e-07
3.941948154174062e-07
3.941950886837595e-07
3.941953148999178e-07
3.941954701570671e-07
3.941648095148992e-07
3.941659590368554e-07
3.941670921658758e-07
3.941682091507038e-07
3.941693102341546e-07
3.941703956357649e-07
3.941714655413444e-07
3.94172520092793e-07
3.941735593787282e-07
3.941745834258706e-07
3.941755921911616e-07
3.941765855545138e-07
3.941775633123236e-07
3.941785251716923e-07
3.941794707454538e-07
3.94180399548101e-07
3.941813109925737e-07
3.941822043881264e-07
3.941830789392732e-07
3.941839337459392e-07
3.941847678049101e-07
3.941855800127031e-07
3.941863691698958e-07
3.941871339870715e-07
3.941878730923825e-07
3.941885850408241e-07
3.941892683252256e-07
3.941899213889264e-07
3.94190542640149e-07
3.941911304678775e-07
3.941916832591879e-07
3.941921994177706e-07
3.941926773834305e-07
3.941931156521888e-07
3.941935127966608e-07
3.941938674860756e-07
3.941941785051815e-07
3.941944447705453e-07
3.941946653408407e-07
3.94194816986099e-07
3.941648023195246e-07
3.941659371714117e-07
3.941670550874003e-07
3.941681563460906e-07
3.941692412182032e-07
3.941703099505482e-07
3.941713627562434e-07
3.941723998050192e-07
3.941734212142349e-07
3.941744270406816e-07
3.941754172730338e-07
3.941763918249985e-07
3.941773505292054e-07
3.94178293131732e-07
3.941792192874672e-07
3.941801285562887e-07
3.941810204000425e-07
3.94181894180597e-07
3.941827491588001e-07
3.941835844946629e-07
3.941843992487039e-07
3.941851923845813e-07
3.94185962773168e-07
3.941867091980609e-07
3.941874303626331e-07
3.941881248987008e-07
3.941887913767792e-07
3.941894283179742e-07
3.941900342074005e-07
3.941906075091163e-07
3.941911466823466e-07
3.941916501988503e-07
3.941921165611531e-07
3.941925443212816e-07
3.941929320995944e-07
3.941932786031086e-07
3.941935826425379e-07
3.941938431469355e-07
3.941940591739361e-07
3.941942080652559e-07
3.94164795190043e-07
3.941659155027589e-07
3.941670183398807e-07
3.941681040201039e-07
3.941691728520575e-07
3.941702251192337e-07
3.941712610707368e-07
3.941722809121355e-07
3.941732847969152e-07
3.941742728186539e-07
3.941752450039134e-07
3.941762013056988e-07
3.941771415976853e-07
3.94178065669055e-07
3.941789732200971e-07
3.941798638585654e-07
3.941807370968267e-07
3.941815923499404e-07
3.94182428934648e-07
3.941832460694161e-07
3.941840428756145e-07
3.941848183798983e-07
3.941855715178661e-07
3.941863011391569e-07
3.941870060139333e-07
3.941876848409349e-07
3.94188336257053e-07
3.941889588484453e-07
3.941895511631756e-07
3.941901117252812e-07
3.941906390501345e-07
3.941911316608982e-07
3.941915881058061e-07
3.94192006975939e-07
3.941923869230465e-07
3.941927266769003e-07
3.941930250615178e-07
3.941932810096045e-07
3.941934935740983e-07
3.941936405491635e-07
3.941647881045663e-07
3.941658939665381e-07
3.941669818189193e-07
3.941680520299704e-07
3.941691049553871e-07
3.941701409239625e-07
3.941711602288385e-07
3.941721631188216e-07
3.941731497903023e-07
3.94174120379868e-07
3.941750749575428e-07
3.941760135206169e-07
3.941769359881572e-07
3.941778421961202e-07
3.941787318931209e-07
3.941796047369845e-07
3.941804602919183e-07
3.94181298026615e-07
3.941821173131477e-07
3.941829174268586e-07
3.941836975472727e-07
3.941844567601369e-07
3.941851940606677e-07
3.941859083581261e-07
3.941865984817556e-07
3.941872631882032e-07
3.941879011704113e-07
3.941885110680613e-07
3.941890914795049e-07
3.941896409751251e-07
3.941901581120223e-07
3.941906414497959e-07
3.941910895672231e-07
3.941915010794232e-07
3.941918746551553e-07
3.941922090337424e-07
3.94192503041108e-07
3.941927556044561e-07
3.94192965764925e-07
3.941931116488994e-07
3.941647810361811e-07
3.941658724833029e-07
3.941669453948466e-07
3.94168000197634e-07
3.941690373029125e-07
3.941700570927492e-07
3.941710599116988e-07
3.941720460586132e-07
3.941730157790378e-07
3.94173969258216e-07
3.941749066147249e-07
3.941758278946378e-07
3.9417673306632e-07
3.941776220157709e-07
3.941784945425662e-07
3.941793503564821e-07
3.941801890747272e-07
3.941810102199615e-07
3.941818132190477e-07
3.941825974027204e-07
3.941833620061764e-07
3.941841061707e-07
3.94184828946467e-07
3.94185529296549e-07
3.941862061022644e-07
3.941868581699576e-07
3.941874842392717e-07
3.941880829929267e-07
3.941886530680464e-07
3.941891930689717e-07
3.941897015814255e-07
3.941901771879116e-07
3.941906184840318e-07
3.941910240954334e-07
3.941913926949639e-07
3.941917230195802e-07
3.941920138865291e-07
3.941922642084158e-07
3.941924730065288e-07
3.941926186217687e-07
3.941647739530125e-07
3.941658509588297e-07
3.941669089137021e-07
3.941679483114996e-07
3.94168969626924e-07
3.941699733026555e-07
3.941709597414501e-07
3.941719292984288e-07
3.941728822739593e-07
3.941738189070716e-07
3.941747393694989e-07
3.941756437601493e-07
3.941765321002006e-07
3.941774043286203e-07
3.94178260298283e-07
3.941790997726274e-07
3.941799224228865e-07
3.941807278259773e-07
3.941815154630889e-07
3.941822847190271e-07
3.941830348824421e-07
3.941837651470241e-07
3.941844746137226e-07
3.941851622941951e-07
3.941858271155316e-07
3.941864679263813e-07
3.941870835045774e-07
3.941876725663427e-07
3.941882337770716e-07
3.941887657637035e-07
3.94189267128599e-07
3.941897364647112e-07
3.941901723719064e-07
3.941905734739774e-07
3.94190938436027e-07
3.941912659817198e-07
3.941915549098651e-07
3.941918041099419e-07
3.941920125758533e-07
3.941921587489454e-07
3.941647668184076e-07
3.941658292847858e-07
3.941668721984693e-07
3.941678961283437e-07
3.941689016198782e-07
3.941698891831111e-07
3.941708592851674e-07
3.941718123430923e-07
3.941727487171803e-07
3.941736687048852e-07
3.94174572535206e-07
3.941754603635321e-07
3.941763322669788e-07
3.941771882401303e-07
3.941780281912462e-07
3.941788519389926e-07
3.941796592095695e-07
3.941804496344912e-07
3.941812227489036e-07
3.941819779906014e-07
3.941827146998158e-07
3.941834321198821e-07
3.941841293988881e-07
3.941848055924872e-07
3.94185459667913e-07
3.941860905094641e-07
3.941866969254951e-07
3.941872776570156e-07
3.94187831388035e-07
3.941883567576182e-07
3.941888523735865e-07
3.941893168277678e-07
3.941897487125359e-07
3.941901466382543e-07
3.941905092512645e-07
3.94190835251799e-07
3.941911234112917e-07
3.941913725884943e-07
3.941915817436764e-07
3.941917293086497e-07
3.94164759591211e-07
3.941658073395516e-07
3.941668350505229e-07
3.941678433754119e-07
3.941688329371812e-07
3.941698043193312e-07
3.941707580589363e-07
3.94171694640004e-07
3.941726144873432e-07
3.94173517960913e-07
3.941744053506634e-07
3.94175276871681e-07
3.941761326598194e-07
3.941769727676297e-07
3.941777971606788e-07
3.941786057142783e-07
3.941793982105432e-07
3.941801743359858e-07
3.941809336795167e-07
3.941816757311003e-07
3.941823998810365e-07
3.941831054200452e-07
3.941837915402702e-07
3.941844573373581e-07
3.941851018137847e-07
3.941857238835812e-07
3.94186322378664e-07
3.94186896056886e-07
3.941874436119463e-07
3.941879636852045e-07
3.941884548794206e-07
3.941889157742599e-07
3.941893449433596e-07
3.941897409725813e-07
3.941901024789814e-07
3.941904281298166e-07
3.941907166609472e-07
3.941909668938841e-07
3.941911777505681e-07
3.941913275480464e-07
3.941647522260316e-07
3.941657849891059e-07
3.941667972511676e-07
3.941677897526626e-07
3.94168763200097e-07
3.941697182559126e-07
3.941706555320551e-07
3.94171575583951e-07
3.941724789049121e-07
3.941733659210248e-07
3.941742369863647e-07
3.94175092378551e-07
3.941759322946509e-07
3.941767568472848e-07
3.941775660610665e-07
3.941783598693132e-07
3.941791381110059e-07
3.941799005281528e-07
3.941806467634783e-07
3.941813763586143e-07
3.941820887528344e-07
3.941827832824957e-07
3.941834591812828e-07
3.941841155815467e-07
3.941847515167581e-07
3.941853659254889e-07
3.941859576569967e-07
3.941865254786781e-07
3.941870680855727e-07
3.941875841120401e-07
3.941880721456223e-07
3.941885307430539e-07
3.941889584481807e-07
3.941893538114246e-07
3.941897154101713e-07
3.941900418694473e-07
3.94190331881912e-07
3.941905842263105e-07
3.941907977832342e-07
3.941909506554904e-07
3.941647446736194e-07
3.941657620881051e-07
3.941667585634369e-07
3.941677349352625e-07
3.941686919989676e-07
3.941696305007159e-07
3.941705511315796e-07
3.941714545222187e-07
3.941723412378913e-07
3.941732117738337e-07
3.941740665510109e-07
3.941749059120096e-07
3.94175730117248e-07
3.941765393412949e-07
3.94177333669395e-07
3.941781130941714e-07
3.941788775124702e-07
3.941796267224708e-07
3.941803604209997e-07
3.941810782012196e-07
3.941817795507593e-07
3.941824638504071e-07
3.941831303735627e-07
3.941837782866309e-07
3.941844066506134e-07
3.94185014424151e-07
3.941856004682995e-07
3.941861635533191e-07
3.941867023677457e-07
3.941872155299347e-07
3.941877016022182e-07
3.941881591076043e-07
3.941885865489149e-07
3.941889824298566e-07
3.941893452775023e-07
3.941896736652357e-07
3.941899662350718e-07
3.941902217182173e-07
3.941904389524465e-07
3.941905957342163e-07
3.941647368812359e-07
3.941657384810329e-07
3.941667187340222e-07
3.941676785762789e-07
3.941686188966539e-07
3.941695405290179e-07
3.941704442471342e-07
3.94171330760045e-07
3.941722007077391e-07
3.941730546571502e-07
3.941738930983697e-07
3.941747164409901e-07
3.941755250106031e-07
3.941763190453628e-07
3.941770986925935e-07
3.941778640055053e-07
3.941786149398798e-07
3.941793513509121e-07
3.941800729901219e-07
3.941807795024939e-07
3.94181470423908e-07
3.941821451790262e-07
3.94182803079797e-07
3.941834433248495e-07
3.941840650000038e-07
3.941846670802782e-07
3.941852484336938e-07
3.941858078272744e-07
3.941863439356054e-07
3.941868553522437e-07
3.941873406042141e-07
3.941877981696458e-07
3.941882264984445e-07
3.941886240355722e-07
3.941889892462493e-07
3.941893206420383e-07
3.9418961680649e-07
3.941898764187829e-07
3.941900982736256e-07
3.941902597784819e-07
3.94164728793094e-07
3.94165714003502e-07
3.941666774954234e-07
3.941676203096889e-07
3.941685434323137e-07
3.941694477880671e-07
3.94170334236169e-07
3.941712035664782e-07
3.941720564958808e-07
3.941728936649366e-07
3.941737156346226e-07
3.941745228831393e-07
3.941753158027646e-07
3.941760946966288e-07
3.941768597754742e-07
3.941776111543289e-07
3.941783488490779e-07
3.941790727729963e-07
3.941797827332317e-07
3.941804784273308e-07
3.94181159439923e-07
3.941818252396651e-07
3.94182475176703e-07
3.941831084808868e-07
3.941837242610477e-07
3.941843215057346e-07
3.941848990858704e-07
3.941854557597544e-07
3.941859901809459e-07
3.941865009094491e-07
3.941869864265854e-07
3.941874451537258e-07
3.941878754748915e-07
3.941882757627935e-07
3.941886444076411e-07
3.941889798474507e-07
3.941892805982437e-07
3.941895452821749e-07
3.941897726513411e-07
3.941899396535067e-07
3.941647203508565e-07
3.941656884837367e-07
3.94166634568379e-07
3.941675597537062e-07
3.94168465125623e-07
3.941693517020858e-07
3.941702204297096e-07
3.941710721808314e-07
3.941719077507099e-07
3.941727278548418e-07
3.941735331263263e-07
3.94174324113139e-07
3.941751012753858e-07
3.941758649823407e-07
3.941766155093363e-07
3.941773530344518e-07
3.941780776349399e-07
3.941787892834611e-07
3.941794878440939e-07
3.941801730682139e-07
3.941808445903265e-07
3.941815019240059e-07
3.941821444581365e-07
3.941827714537712e-07
3.941833820419397e-07
3.941839752228885e-07
3.941845498672558e-07
3.941851047198191e-07
3.941856384064291e-07
3.941861494447862e-07
3.941866362596004e-07
3.941870972025474e-07
3.941875305771131e-07
3.94187934668095e-07
3.941883077749683e-07
3.941886482477702e-07
3.941889545235384e-07
3.941892251607889e-07
3.941894588691517e-07
3.941896320808848e-07
3.941647114941712e-07
3.941656617441748e-07
3.941665896645173e-07
3.941674965144132e-07
3.941683834813339e-07
3.94169251677721e-07
3.941701021386104e-07
3.941709358196688e-07
3.941717535952358e-07
3.941725562564198e-07
3.941733445090901e-07
3.941741189717067e-07
3.941748801729694e-07
3.941756285491904e-07
3.94176364441316e-07
3.941770880916818e-07
3.941777996402666e-07
3.941784991206728e-07
3.941791864556145e-07
3.941798614521192e-07
3.941805237964406e-07
3.941811730488609e-07
3.941818086385638e-07
3.941824298589299e-07
3.94183035863581e-07
3.941836256637978e-07
3.941841981278567e-07
3.941847519830858e-07
3.941852858214613e-07
3.94185798109636e-07
3.941862872041778e-07
3.941867513726986e-07
3.941871888213011e-07
3.941875977281392e-07
3.941879762825159e-07
3.941883227279674e-07
3.941886354070415e-07
3.941889128046779e-07
3.941891535864364e-07
3.941893336312816e-07
3.941647021613004e-07
3.94165633603314e-07
3.941665424893568e-07
3.941674301898572e-07
3.94168297994388e-07
3.941691471100938e-07
3.941699786604868e-07
3.941707936845033e-07
3.941715931354999e-07
3.941723778801411e-07
3.941731486971241e-07
3.941739062755631e-07
3.941746512131326e-07
3.941753840137485e-07
3.941761050848366e-07
3.941768147341114e-07
3.941775131657604e-07
3.941782004761126e-07
3.941788766486439e-07
3.941795415484582e-07
3.941801949162221e-07
3.941808363617087e-07
3.941814653571482e-07
3.94182081230686e-07
3.941826831603856e-07
3.941832701693801e-07
3.941838411228796e-07
3.941843947280089e-07
3.941849295374927e-07
3.941854439583512e-07
3.941859362668139e-07
3.941864046304462e-07
3.941868471382748e-07
3.941872618391053e-07
3.941876467875281e-07
3.941880000961336e-07
3.941883199912807e-07
3.941886048687112e-07
3.941888533442149e-07
3.941890407266697e-07
3.941646922897963e-07
3.941656038777114e-07
3.94166492745533e-07
3.941673603744774e-07
3.941682081554487e-07
3.941690373893815e-07
3.941698492872307e-07
3.941706449702052e-07
3.941714254697401e-07
3.941721917272642e-07
3.941729445936688e-07
3.941736848283557e-07
3.941744130978612e-07
3.941751299739588e-07
3.941758359311634e-07
3.941765313436259e-07
3.941772164812504e-07
3.941778915051197e-07
3.941785564620119e-07
3.94179211278167e-07
3.94179855752179e-07
3.941804895472051e-07
3.941811121825912e-07
3.941817230252743e-07
3.941823212813343e-07
3.941829059884134e-07
3.941834760098004e-07
3.941840300312915e-07
3.941845665621603e-07
3.941850839417465e-07
3.941855803532883e-07
3.94186053846542e-07
3.941865023705053e-07
3.941869238169221e-07
3.941873160744769e-07
3.941876770922547e-07
3.941880049497056e-07
3.941882979287466e-07
3.94188554582119e-07
3.941887496551624e-07
3.941646818172597e-07
3.941655723842189e-07
3.941664401364535e-07
3.941672866640174e-07
3.941681134570385e-07
3.94168921908034e-07
3.941697133132728e-07
3.941704888741991e-07
3.941712496984695e-07
3.941719968006531e-07
3.941727311025086e-07
3.941734534327075e-07
3.94174164526043e-07
3.941748650219678e-07
3.941755554624163e-07
3.941762362888647e-07
3.941769078384615e-07
3.941775703392375e-07
3.941782239042092e-07
3.941788685244293e-07
3.941795040608425e-07
3.941801302350658e-07
3.941807466191626e-07
3.941813526246926e-07
3.941819474914495e-07
3.941825302765677e-07
3.941830998449376e-07
3.941836548621797e-07
3.941841937918239e-07
3.941847148986213e-07
3.941852162601587e-07
3.941856957890384e-07
3.941861512676788e-07
3.941865803971837e-07
3.941869808607891e-07
3.941873504008714e-07
3.941876869066984e-07
3.941879885082102e-07
3.941882536690771e-07
3.941884566017461e-07
3.941646706821712e-07
3.941655389424081e-07
3.941663843701913e-07
3.94167208660848e-07
3.941680134001259e-07
3.94168800068609e-07
3.941695700445247e-07
3.941703246064334e-07
3.941710649353814e-07
3.941717921165767e-07
3.941725071405192e-07
3.941732109034659e-07
3.941739042072597e-07
3.941745877583664e-07
3.941752621660935e-07
3.941759279399006e-07
3.941765854855945e-07
3.941772351004627e-07
3.941778769670088e-07
3.941785111453621e-07
3.941791375641376e-07
3.941797560097655e-07
3.941803661142778e-07
3.941809673418023e-07
3.941815589740492e-07
3.941821400955181e-07
3.941827095793541e-07
3.941832660753209e-07
3.941838080017921e-07
3.94184333544165e-07
3.941848406626001e-07
3.941853271121942e-07
3.941857904787248e-07
3.941862282325195e-07
3.941866378019182e-07
3.941870166659677e-07
3.941873624638125e-07
3.941876731159417e-07
3.941879469504821e-07
3.941881576992623e-07
3.941646588247814e-07
3.941655033771974e-07
3.941663251637419e-07
3.941671259796875e-07
3.941679075012644e-07
3.941686712921798e-07
3.941694188080034e-07
3.94170151400145e-07
3.941708703191678e-07
3.941715767174808e-07
3.941722716513617e-07
3.941729560821934e-07
3.941736308769855e-07
3.941742968079804e-07
3.941749545513285e-07
3.941756046847506e-07
3.941762476839342e-07
3.941768839176744e-07
3.941775136414123e-07
3.941781369891075e-07
3.941787539632119e-07
3.941793644225703e-07
3.941799680682357e-07
3.941805644271774e-07
3.941811528341812e-07
3.941817324125092e-07
3.941823020542509e-07
3.941828604019424e-07
3.941834058336118e-07
3.941839364541881e-07
3.941844500969613e-07
3.9418494433936e-07
3.941854165376076e-07
3.941858638843866e-07
3.941862834924665e-07
3.941866725049714e-07
3.941870282300433e-07
3.94187348295066e-07
3.941876308148324e-07
3.941878491053361e-07
3.941646461880922e-07
3.941654655216916e-07
3.94166262247549e-07
3.9416703825374e-07
3.941677953001817e-07
3.941685350273178e-07
3.941692589621064e-07
3.941699685233477e-07
3.941706650261672e-07
3.941713496857411e-07
3.941720236202413e-07
3.941726878528966e-07
3.941733433132291e-07
3.941739908373112e-07
3.941746311669906e-07
3.941752649480203e-07
3.941758927267882e-07
3.941765149456405e-07
3.941771319363976e-07
3.941777439119098e-07
3.941783509553018e-07
3.941789530066529e-07
3.941795498468521e-07
3.941801410785194e-07
3.941807261040158e-07
3.941813041009789e-07
3.941818739961883e-07
3.941824344393034e-07
3.941829837788594e-07
3.941835200439244e-07
3.941840409360363e-07
3.941845438370368e-07
3.941850258393254e-07
3.941854838048884e-07
3.941859144583742e-07
3.941863145164145e-07
3.941866808509594e-07
3.941870106803135e-07
3.941873017830498e-07
3.941875271143907e-07
3.941646327188664e-07
3.941654252201541e-07
3.941661953702969e-07
3.941669451411365e-07
3.941676763677957e-07
3.941683907595453e-07
3.941690899074415e-07
3.941697752909847e-07
3.941704482837755e-07
3.941711101582835e-07
3.941717620897339e-07
3.941724051589838e-07
3.941730403545579e-07
3.941736685735819e-07
3.941742906216919e-07
3.941749072117222e-07
3.941755189609723e-07
3.94176126386899e-07
3.94176729900874e-07
3.941773297996944e-07
3.941779262544224e-07
3.941785192961186e-07
3.941791087980086e-07
3.941796944537142e-07
3.941802757513015e-07
3.941808519432601e-07
3.941814220129514e-07
3.941819846388839e-07
3.941825381592292e-07
3.94183080540368e-07
3.941836093549603e-07
3.94184121776838e-07
3.941846146016752e-07
3.941850843031159e-07
3.941855271332687e-07
3.941859392725591e-07
3.941863170262962e-07
3.941866570549822e-07
3.941869566230462e-07
3.941871883224215e-07
3.941646183687032e-07
3.941653823311094e-07
3.941661243038836e-07
3.941668463316276e-07
3.941675503144994e-07
3.941682380211617e-07
3.941689110981025e-07
3.941695710775855e-07
3.941702193844639e-07
3.941708573419638e-07
3.941714861764754e-07
3.941721070213025e-07
3.941727209194644e-07
3.941733288254233e-07
3.941739316057211e-07
3.941745300384065e-07
3.941751248109888e-07
3.941757165168028e-07
3.941763056492706e-07
3.941768925937909e-07
3.941774776165916e-07
3.941780608499905e-07
3.941786422733395e-07
3.941792216889672e-07
3.941797986924594e-07
3.941803726369506e-07
3.941809425914692e-07
3.941815072942631e-07
3.94182065103242e-07
3.941826139474368e-07
3.941831512857325e-07
3.941836740818752e-07
3.941841788077712e-07
3.941846614894478e-07
3.941851178106197e-07
3.941855432850708e-07
3.941859334970719e-07
3.941862843829174e-07
3.941865924861112e-07
3.941868298930863e-07
3.941646030951328e-07
3.941653367305602e-07
3.941660488485264e-07
3.941667415534708e-07
3.941674167986845e-07
3.94168076401291e-07
3.941687220531973e-07
3.941693553302687e-07
3.94169977700246e-07
3.941705905294793e-07
3.941711950885962e-07
3.941717925570861e-07
3.94172384026902e-07
3.941729705050079e-07
3.941735529148303e-07
3.941741320965658e-07
3.941747088060304e-07
3.941752837119663e-07
3.941758573912182e-07
3.941764303214451e-07
3.941770028705858e-07
3.94177575282337e-07
3.941781476566041e-07
3.941787199238985e-07
3.941792918124937e-07
3.941798628073737e-07
3.941804321002728e-07
3.941809985309363e-07
3.941815605210303e-07
3.941821160042068e-07
3.941826623588418e-07
3.941831963539556e-07
3.941837141237093e-07
3.941842111908822e-07
3.941846825639024e-07
3.941851229320954e-07
3.941855269735649e-07
3.941858897490658e-07
3.941862070142506e-07
3.941864501539563e-07
3.941645868627368e-07
3.941652883151974e-07
3.941659688379091e-07
3.941666305803032e-07
3.941672755352579e-07
3.941679055559763e-07
3.941685223684646e-07
3.941691275818612e-07
3.941697226973083e-07
3.941703091155781e-07
3.941708881435322e-07
3.941714609995013e-07
3.941720288176543e-07
3.941725926513733e-07
3.941731534756071e-07
3.941737121881702e-07
3.941742696096979e-07
3.941748264821917e-07
3.941753834655301e-07
3.941759411315774e-07
3.941764999549995e-07
3.941770602998231e-07
3.941776224004938e-07
3.941781863358942e-07
3.941787519945835e-07
3.941793190294546e-07
3.941798868000738e-07
3.941804543015849e-07
3.94181020080246e-07
3.941815821379352e-07
3.941821378315116e-07
3.941826837781497e-07
3.941832157849309e-07
3.941837288297032e-07
3.941842171301829e-07
3.941846743482417e-07
3.941850939871036e-07
3.941854700513031e-07
3.941857980287908e-07
3.941860463142048e-07
3.941645696442416e-07
3.941652370055938e-07
3.941658841442521e-07
3.941665132379446e-07
3.941671263040448e-07
3.941677252180927e-07
3.941683117276911e-07
3.94168887463806e-07
3.941694539504795e-07
3.941700126131679e-07
3.941705647859292e-07
3.94171111717456e-07
3.941716545762076e-07
3.941721944545597e-07
3.94172732372101e-07
3.941732692779929e-07
3.941738060522439e-07
3.941743435057501e-07
3.941748823786163e-07
3.941754233362617e-07
3.94175966962427e-07
3.941765137479567e-07
3.941770640738191e-07
3.941776181864419e-07
3.941781761629455e-07
3.941787378635161e-07
3.941793028678329e-07
3.941798703926829e-07
3.941804391887058e-07
3.941810074162712e-07
3.941815725042913e-07
3.941821310019794e-07
3.94182678442898e-07
3.94183209253389e-07
3.941837167532932e-07
3.941841933153207e-07
3.941846307784726e-07
3.941850212958418e-07
3.941853572373787e-07
3.941856058285339e-07
3.941645514215986e-07
3.941651827493077e-07
3.941657946832049e-07
3.941663894109299e-07
3.941669689578344e-07
3.941675352068554e-07
3.941680899136354e-07
3.941686347185867e-07
3.941691711571951e-07
3.941697006689574e-07
3.94170224605075e-07
3.941707442350754e-07
3.941712607525359e-07
3.941717752799951e-07
3.941722888731123e-07
3.941728025241776e-07
3.941733171647848e-07
3.941738336676491e-07
3.941743528471097e-07
3.941748754578998e-07
3.941754021912441e-07
3.941759336671135e-07
3.941764704209184e-07
3.941770128823285e-07
3.941775613431833e-07
3.941781159107349e-07
3.941786764415595e-07
3.941792424510193e-07
3.94179812993188e-07
3.941803865075273e-07
3.941809606320417e-07
3.941815319890356e-07
3.941820959606695e-07
3.941826464882209e-07
3.941831759501445e-07
3.941836751919284e-07
3.941841337818925e-07
3.941845405399547e-07
3.941848822703218e-07
3.941851285068271e-07
3.94164532187e-07
3.941651255238287e-07
3.941657004184891e-07
3.941662590486328e-07
3.941668034298659e-07
3.941673354366063e-07
3.941678568181571e-07
3.941683692111942e-07
3.941688741504701e-07
3.94169373078059e-07
3.941698673514077e-07
3.941703582503186e-07
3.941708469831615e-07
3.9417133469236e-07
3.941718224593655e-07
3.941723113092285e-07
3.941728022147251e-07
3.941732961000857e-07
3.941737938440348e-07
3.941742962817465e-07
3.941748042049394e-07
3.94175318358933e-07
3.941758394348678e-07
3.941763680545886e-07
3.941769047446732e-07
3.941774498949308e-07
3.941780036951247e-07
3.941785660421613e-07
3.941791364087586e-07
3.941797136646754e-07
3.941802958437502e-07
3.941808798552505e-07
3.941814611494475e-07
3.941820333692013e-07
3.941825880523289e-07
3.941831144791856e-07
3.941835997439701e-07
3.941840289619864e-07
3.941843845118305e-07
3.941846334516866e-07
3.941645119438604e-07
3.941650653393328e-07
3.94165601366171e-07
3.941661221708346e-07
3.9416662974056e-07
3.941671259246653e-07
3.941676124511611e-07
3.941680909393191e-07
3.941685629104306e-07
3.941690297970908e-07
3.941694929513771e-07
3.941699536519731e-07
3.941704131106369e-07
3.941708724780869e-07
3.941713328495611e-07
3.9417179527033e-07
3.941722607411422e-07
3.941727302239002e-07
3.941732046473526e-07
3.941736849126728e-07
3.941741718982737e-07
3.941746664628785e-07
3.941751694451254e-07
3.941756816572683e-07
3.941762038692483e-07
3.941767367779507e-07
3.941772809541103e-07
3.9417783675643e-07
3.941784041992487e-07
3.941789827583371e-07
3.941795710994055e-07
3.941801667155538e-07
3.941807654670822e-07
3.941813610438445e-07
3.941819444275101e-07
3.941825035121345e-07
3.941830231070152e-07
3.94183485485905e-07
3.941838672971144e-07
3.941841268903789e-07
3.941644907077333e-07
3.941650022412745e-07
3.941654975985391e-07
3.94165978872611e-07
3.941664480032485e-07
3.941669067978443e-07
3.941673569480094e-07
3.941678000417415e-07
3.941682375738565e-07
3.941686709550825e-07
3.941691015200223e-07
3.941695305342176e-07
3.941699592005714e-07
3.941703886653447e-07
3.941708200240512e-07
3.941712543275519e-07
3.941716925885929e-07
3.941721357891978e-07
3.941725848889317e-07
3.941730408342244e-07
3.941735045683492e-07
3.941739770414015e-07
3.941744592188777e-07
3.941749520866743e-07
3.941754566491266e-07
3.941759739151026e-07
3.941765048642388e-07
3.941770503807165e-07
3.941776111356721e-07
3.941781873951462e-07
3.941787787295705e-07
3.941793835949946e-07
3.941799987464125e-07
3.941806184643711e-07
3.941812336624418e-07
3.941818311096653e-07
3.94182393244303e-07
3.941828968622855e-07
3.941833101049675e-07
3.94183586372085e-07
3.941644685072919e-07
3.941649363129777e-07
3.941653892476863e-07
3.941658293284805e-07
3.941662584287321e-07
3.941666782974548e-07
3.941670905750368e-07
3.941674968044984e-07
3.941678984412472e-07
3.94168296861638e-07
3.941686933705306e-07
3.941690892079381e-07
3.941694855551325e-07
3.941698835403769e-07
3.941702842447303e-07
3.941706887082861e-07
3.941710979373228e-07
3.941715129129087e-07
3.941719346013657e-07
3.941723639670293e-07
3.941728019874106e-07
3.94173249670459e-07
3.941737080730544e-07
3.941741783190242e-07
3.941746616141585e-07
3.941751592545856e-07
3.941756726222968e-07
3.941762031548274e-07
3.941767522637243e-07
3.94177321168702e-07
3.941779106214163e-07
3.941785204800451e-07
3.94179149036251e-07
3.941797919777577e-07
3.941804409701496e-07
3.941810820937733e-07
3.941816945482734e-07
3.94182247254761e-07
3.941827025676651e-07
3.941830099366945e-07
3.941644453855562e-07
3.941648676785862e-07
3.941652765089864e-07
3.941656737957859e-07
3.941660613284576e-07
3.941664407823768e-07
3.94166813732736e-07
3.941671816644271e-07