/*--------------------------------*- C++ -*----------------------------------*\
| =========                 |                                                 |
| \\      /  F ield         | OpenFOAM: The Open Source CFD Toolbox           |
|  \\    /   O peration     | Version:  2206                                  |
|   \\  /    A nd           | Website:  www.openfoam.com                      |
|    \\/     M anipulation  |                                                 |
\*---------------------------------------------------------------------------*/
FoamFile
{
    version     2.0;
    format      ascii;
    arch        "LSB;label=32;scalar=64";
    class       volVectorField;
    location    "2";
    object      cellDisplacement;
}
// * * * * * * * * * * * * * * * * * * * * * * * * * * * * * * * * * * * * * //

dimensions      [0 1 0 0 0 0 0];

internalField   nonuniform List<vector> 
18114
(
(-0 3.310170403524124e-10 0)
(-0 9.84966358147799e-10 0)
(-0 1.631015105057551e-09 0)
(-0 2.269344186406838e-09 0)
(-0 2.900101281662027e-09 0)
(-0 3.523411465288922e-09 0)
(-0 4.139373123021923e-09 0)
(-0 4.748052314711781e-09 0)
(-0 5.349476840348747e-09 0)
(-0 5.943630403142556e-09 0)
(-0 6.530447024468014e-09 0)
(-0 7.109805792646477e-09 0)
(-0 7.68152600527878e-09 0)
(-0 8.245362760295458e-09 0)
(-0 8.801003053412468e-09 0)
(-0 9.348062445159713e-09 0)
(-0 9.886082367280523e-09 0)
(-0 1.041452814498498e-08 0)
(-0 1.093278781755877e-08 0)
(-0 1.144017184449703e-08 0)
(-0 1.193591378707412e-08 0)
(-0 1.24191720554475e-08 0)
(-0 1.288903280848334e-08 0)
(-0 1.334451408693493e-08 0)
(-0 1.378457125001057e-08 0)
(-0 1.420810377040388e-08 0)
(-0 1.461396342352808e-08 0)
(-0 1.50009638831597e-08 0)
(-0 1.536789170863229e-08 0)
(-0 1.571351867923994e-08 0)
(-0 1.603661540140102e-08 0)
(-0 1.633596608613824e-08 0)
(-0 1.661038437247109e-08 0)
(-0 1.68587300619495e-08 0)
(-0 1.707992663725067e-08 0)
(-0 1.727297946325832e-08 0)
(-0 1.743699456063695e-08 0)
(-0 1.757119746051804e-08 0)
(-0 1.767494906407234e-08 0)
(-0 1.77477405484129e-08 0)
(-0 9.849788055299941e-10 0)
(-0 2.930232565449948e-09 0)
(-0 4.851222181751672e-09 0)
(-0 6.748448374083832e-09 0)
(-0 8.622335565917244e-09 0)
(-0 1.047324822471239e-08 0)
(-0 1.230147437562263e-08 0)
(-0 1.41072079617644e-08 0)
(-0 1.589053122326624e-08 0)
(-0 1.765139765293376e-08 0)
(-0 1.93896158238102e-08 0)
(-0 2.110483427943853e-08 0)
(-0 2.279652764188183e-08 0)
(-0 2.446398408749669e-08 0)
(-0 2.610629434954976e-08 0)
(-0 2.772234242233124e-08 0)
(-0 2.931079815935408e-08 0)
(-0 3.087011197594309e-08 0)
(-0 3.239851188206601e-08 0)
(-0 3.389400308289924e-08 0)
(-0 3.535437039073446e-08 0)
(-0 3.677718369083678e-08 0)
(-0 3.815980669424687e-08 0)
(-0 3.949940919096135e-08 0)
(-0 4.079298298631449e-08 0)
(-0 4.203736166107794e-08 0)
(-0 4.322924424174164e-08 0)
(-0 4.436522280231949e-08 0)
(-0 4.544181394468486e-08 0)
(-0 4.645549402401567e-08 0)
(-0 4.740273790428581e-08 0)
(-0 4.828006095334244e-08 0)
(-0 4.908406392868444e-08 0)
(-0 4.981148038016822e-08 0)
(-0 5.045922623019153e-08 0)
(-0 5.102445132807515e-08 0)
(-0 5.150459309152322e-08 0)
(-0 5.189743302889229e-08 0)
(-0 5.220115866102639e-08 0)
(-0 5.241443793921293e-08 0)
(-0 1.631048413250867e-09 0)
(-0 4.851260128174563e-09 0)
(-0 8.030278280341145e-09 0)
(-0 1.116890639319608e-08 0)
(-0 1.426784132122635e-08 0)
(-0 1.732768787924734e-08 0)
(-0 2.034892806478503e-08 0)
(-0 2.333189078337986e-08 0)
(-0 2.627672255889614e-08 0)
(-0 2.918335960293527e-08 0)
(-0 3.205150152026339e-08 0)
(-0 3.488058687755587e-08 0)
(-0 3.766977084922997e-08 0)
(-0 4.041790516266897e-08 0)
(-0 4.312352058597645e-08 0)
(-0 4.57848122283452e-08 0)
(-0 4.839962795198591e-08 0)
(-0 5.096546022221015e-08 0)
(-0 5.347944174598668e-08 0)
(-0 5.593834526661743e-08 0)
(-0 5.833858789064248e-08 0)
(-0 6.067624032032657e-08 0)
(-0 6.294704134879928e-08 0)
(-0 6.514641794313107e-08 0)
(-0 6.726951119164386e-08 0)
(-0 6.931120832467215e-08 0)
(-0 7.12661809326417e-08 0)
(-0 7.312892940292811e-08 0)
(-0 7.48938334801254e-08 0)
(-0 7.655520872777952e-08 0)
(-0 7.81073685405066e-08 0)
(-0 7.954469123417166e-08 0)
(-0 8.086169164361336e-08 0)
(-0 8.205309660482539e-08 0)
(-0 8.311392372736897e-08 0)
(-0 8.403956303601663e-08 0)
(-0 8.4825861503889e-08 0)
(-0 8.546921150053744e-08 0)
(-0 8.596664647995097e-08 0)
(-0 8.631595012173525e-08 0)
(-0 2.269403161188574e-09 0)
(-0 6.748539249222417e-09 0)
(-0 1.116896981509467e-08 0)
(-0 1.553181329024757e-08 0)
(-0 1.983805142232988e-08 0)
(-0 2.408854353962046e-08 0)
(-0 2.828398166989484e-08 0)
(-0 3.24248476866049e-08 0)
(-0 3.651137255019058e-08 0)
(-0 4.054349782644292e-08 0)
(-0 4.452083969217223e-08 0)
(-0 4.844265565255983e-08 0)
(-0 5.230781421491821e-08 0)
(-0 5.611476779298839e-08 0)
(-0 5.986152915207427e-08 0)
(-0 6.354565174501773e-08 0)
(-0 6.716421432900087e-08 0)
(-0 7.07138102903485e-08 0)
(-0 7.419054213586562e-08 0)
(-0 7.75900216317632e-08 0)
(-0 8.090737608181721e-08 0)
(-0 8.413726123207096e-08 0)
(-0 8.727388126713938e-08 0)
(-0 9.031101632041849e-08 0)
(-0 9.324205785507538e-08 0)
(-0 9.606005218329559e-08 0)
(-0 9.875775227768145e-08 0)
(-0 1.013276778922725e-07 0)
(-0 1.037621838545985e-07 0)
(-0 1.060535362201149e-07 0)
(-0 1.081939958046835e-07 0)
(-0 1.101759084413442e-07 0)
(-0 1.119918011606115e-07 0)
(-0 1.136344833908177e-07 0)
(-0 1.150971522466238e-07 0)
(-0 1.163735010615354e-07 0)
(-0 1.174578305772798e-07 0)
(-0 1.183451626603062e-07 0)
(-0 1.190313568638802e-07 0)
(-0 1.195132254356801e-07 0)
(-0 2.900187244310328e-09 0)
(-0 8.622484234380986e-09 0)
(-0 1.426797723608682e-08 0)
(-0 1.983812846994655e-08 0)
(-0 2.533423188920086e-08 0)
(-0 3.07574283657422e-08 0)
(-0 3.610864751769355e-08 0)
(-0 4.138855273737651e-08 0)
(-0 4.659748934869843e-08 0)
(-0 5.173543596957462e-08 0)
(-0 5.680195923580359e-08 0)
(-0 6.179617209819786e-08 0)
(-0 6.671669595401427e-08 0)
(-0 7.156162692386501e-08 0)
(-0 7.632850663745859e-08 0)
(-0 8.101429794442119e-08 0)
(-0 8.561536601766563e-08 0)
(-0 9.012746536345361e-08 0)
(-0 9.454573329122621e-08 0)
(-0 9.8864690424083e-08 0)
(-0 1.030782488439077e-07 0)
(-0 1.071797284599448e-07 0)
(-0 1.11161882162627e-07 0)
(-0 1.150169302723723e-07 0)
(-0 1.187366047133054e-07 0)
(-0 1.223122032326049e-07 0)
(-0 1.257346538470346e-07 0)
(-0 1.289945895304573e-07 0)
(-0 1.320824329631356e-07 0)
(-0 1.349884909515101e-07 0)
(-0 1.377030579047214e-07 0)
(-0 1.402165275335859e-07 0)
(-0 1.425195117342118e-07 0)
(-0 1.446029654499335e-07 0)
(-0 1.464583161905688e-07 0)
(-0 1.480775968404864e-07 0)
(-0 1.494535803911546e-07 0)
(-0 1.505799151593931e-07 0)
(-0 1.514512583367482e-07 0)
(-0 1.520633977294999e-07 0)
(-0 3.523522358742402e-09 0)
(-0 1.047344978343554e-08 0)
(-0 1.732788958214901e-08 0)
(-0 2.40886898618701e-08 0)
(-0 3.075749696172652e-08 0)
(-0 3.73357721717389e-08 0)
(-0 4.382472108923208e-08 0)
(-0 5.022522711838312e-08 0)
(-0 5.653778902688168e-08 0)
(-0 6.276246259393777e-08 0)
(-0 6.889880647576221e-08 0)
(-0 7.494583249037077e-08 0)
(-0 8.090196059271316e-08 0)
(-0 8.676497887851492e-08 0)
(-0 9.253200902217824e-08 0)
(-0 9.81994776197748e-08 0)
(-0 1.037630939705291e-07 0)
(-0 1.092178348864179e-07 0)
(-0 1.14557937166296e-07 0)
(-0 1.19776898404537e-07 0)
(-0 1.248674868206516e-07 0)
(-0 1.298217607915038e-07 0)
(-0 1.346310987375522e-07 0)
(-0 1.392862399551432e-07 0)
(-0 1.437773368950228e-07 0)
(-0 1.480940192606516e-07 0)
(-0 1.522254701377014e-07 0)
(-0 1.561605141693089e-07 0)
(-0 1.598877175635783e-07 0)
(-0 1.633954994666004e-07 0)
(-0 1.666722539649583e-07 0)
(-0 1.697064817083058e-07 0)
(-0 1.724869298795249e-07 0)
(-0 1.75002739002126e-07 0)
(-0 1.772435948738753e-07 0)
(-0 1.791998837515862e-07 0)
(-0 1.808628487465076e-07 0)
(-0 1.822247450678147e-07 0)
(-0 1.832789907160019e-07 0)
(-0 1.840203000811449e-07 0)
(-0 4.13950359583341e-09 0)
(-0 1.230171443888274e-08 0)
(-0 2.034917359762923e-08 0)
(-0 2.828416889529085e-08 0)
(-0 3.610875074721215e-08 0)
(-0 4.382475056883457e-08 0)
(-0 5.143369836467166e-08 0)
(-0 5.893674529531858e-08 0)
(-0 6.633459114976537e-08 0)
(-0 7.36274167433884e-08 0)
(-0 8.081482135169233e-08 0)
(-0 8.78957653748808e-08 0)
(-0 9.486851851066603e-08 0)
(-0 1.017306137938509e-07 0)
(-0 1.084788079412582e-07 0)
(-0 1.151090485183453e-07 0)
(-0 1.216164485171799e-07 0)
(-0 1.279952690014121e-07 0)
(-0 1.342389105289786e-07 0)
(-0 1.403399141034944e-07 0)
(-0 1.462899724262357e-07 0)
(-0 1.520799522177268e-07 0)
(-0 1.576999283464708e-07 0)
(-0 1.631392304378954e-07 0)
(-0 1.683865025351483e-07 0)
(-0 1.734297762420267e-07 0)
(-0 1.782565575955469e-07 0)
(-0 1.828539276919672e-07 0)
(-0 1.872086568284697e-07 0)
(-0 1.91307331629243e-07 0)
(-0 1.951364943085762e-07 0)
(-0 1.986827928970898e-07 0)
(-0 2.019331409350015e-07 0)
(-0 2.048748848333299e-07 0)
(-0 2.074959768318886e-07 0)
(-0 2.097851512423535e-07 0)
(-0 2.117321014256166e-07 0)
(-0 2.133276545893456e-07 0)
(-0 2.145639405059928e-07 0)
(-0 2.15434540377123e-07 0)
(-0 4.748193776668481e-09 0)
(-0 1.410746286263171e-08 0)
(-0 2.333214332040815e-08 0)
(-0 3.242502745586868e-08 0)
(-0 4.138863200822772e-08 0)
(-0 5.022521817568147e-08 0)
(-0 5.893669805342172e-08 0)
(-0 6.752454684249437e-08 0)
(-0 7.598972076011535e-08 0)
(-0 8.433258066096111e-08 0)
(-0 9.255282146651804e-08 0)
(-0 1.006494075903669e-07 0)
(-0 1.086205146394531e-07 0)
(-0 1.164634777639802e-07 0)
(-0 1.241747471203742e-07 0)
(-0 1.317498510010289e-07 0)
(-0 1.391833672687421e-07 0)
(-0 1.464689038097753e-07 0)
(-0 1.535990887835781e-07 0)
(-0 1.605655714951032e-07 0)
(-0 1.673590347425804e-07 0)
(-0 1.739692194944823e-07 0)
(-0 1.803849627189349e-07 0)
(-0 1.865942491218341e-07 0)
(-0 1.925842774416509e-07 0)
(-0 1.983415417955692e-07 0)
(-0 2.038519283708033e-07 0)
(-0 2.091008275064724e-07 0)
(-0 2.140732609177201e-07 0)
(-0 2.187540234806918e-07 0)
(-0 2.23127838633959e-07 0)
(-0 2.271795260722019e-07 0)
(-0 2.308941800276347e-07 0)
(-0 2.342573560715705e-07 0)
(-0 2.372552640391495e-07 0)
(-0 2.398749643941536e-07 0)
(-0 2.421045650959166e-07 0)
(-0 2.439334157126129e-07 0)
(-0 2.453522946705259e-07 0)
(-0 2.463535748849681e-07 0)
(-0 5.349617482943744e-09 0)
(-0 1.58907681107841e-08 0)
(-0 2.627693061982941e-08 0)
(-0 3.651147688735463e-08 0)
(-0 4.65974620138929e-08 0)
(-0 5.65376458028833e-08 0)
(-0 6.633438862827951e-08 0)
(-0 7.598955384830112e-08 0)
(-0 8.550441667920874e-08 0)
(-0 9.487957951935128e-08 0)
(-0 1.041148938031837e-07 0)
(-0 1.132093885618891e-07 0)
(-0 1.221612059683698e-07 0)
(-0 1.309675442474576e-07 0)
(-0 1.396246084351285e-07 0)
(-0 1.481275695709714e-07 0)
(-0 1.564705330033519e-07 0)
(-0 1.646465165732626e-07 0)
(-0 1.726474395168241e-07 0)
(-0 1.80464122983241e-07 0)
(-0 1.880863030996287e-07 0)
(-0 1.955026575208928e-07 0)
(-0 2.027008463759092e-07 0)
(-0 2.09667568454594e-07 0)
(-0 2.163886333684052e-07 0)
(-0 2.228490502545191e-07 0)
(-0 2.290331333778746e-07 0)
(-0 2.349246247141858e-07 0)
(-0 2.405068332725487e-07 0)
(-0 2.457627905437871e-07 0)
(-0 2.50675421049947e-07 0)
(-0 2.552277265358198e-07 0)
(-0 2.594029819038743e-07 0)
(-0 2.631849405719505e-07 0)
(-0 2.665580465522906e-07 0)
(-0 2.695076502321662e-07 0)
(-0 2.720202245859289e-07 0)
(-0 2.740835782940466e-07 0)
(-0 2.756870615091087e-07 0)
(-0 2.768217485434337e-07 0)
(-0 5.943755177706236e-09 0)
(-0 1.76515744631561e-08 0)
(-0 2.918345705671382e-08 0)
(-0 4.054343921760774e-08 0)
(-0 5.173519552698983e-08 0)
(-0 6.276206164215792e-08 0)
(-0 7.362692017965635e-08 0)
(-0 8.433209390528655e-08 0)
(-0 9.487924610821737e-08 0)
(-0 1.052692881179027e-07 0)
(-0 1.155022940180673e-07 0)
(-0 1.255774227167972e-07 0)
(-0 1.354928476423297e-07 0)
(-0 1.452456944476644e-07 0)
(-0 1.548319872210904e-07 0)
(-0 1.642466038114573e-07 0)
(-0 1.734832409835006e-07 0)
(-0 1.825343902162424e-07 0)
(-0 1.913913250423526e-07 0)
(-0 2.00044100893555e-07 0)
(-0 2.084815684613692e-07 0)
(-0 2.166914015975505e-07 0)
(-0 2.246601407580395e-07 0)
(-0 2.323732529311633e-07 0)
(-0 2.398152088784722e-07 0)
(-0 2.469695783487824e-07 0)
(-0 2.538191436977594e-07 0)
(-0 2.603460320540197e-07 0)
(-0 2.66531865818623e-07 0)
(-0 2.723579308725571e-07 0)
(-0 2.778053614063034e-07 0)
(-0 2.828553397924864e-07 0)
(-0 2.874893094190973e-07 0)
(-0 2.916891979146833e-07 0)
(-0 2.954376477605917e-07 0)
(-0 2.987182509320691e-07 0)
(-0 3.015157839610267e-07 0)
(-0 3.038164396135883e-07 0)
(-0 3.056080507426779e-07 0)
(-0 3.068802896226631e-07 0)
(-0 6.530537570681796e-09 0)
(-0 1.938968110252243e-08 0)
(-0 3.205140734190044e-08 0)
(-0 4.452051081865873e-08 0)
(-0 5.680137508288852e-08 0)
(-0 6.889799658612544e-08 0)
(-0 8.081386120031379e-08 0)
(-0 9.255182878299945e-08 0)
(-0 1.041140256119052e-07 0)
(-0 1.155017446034878e-07 0)
(-0 1.267153533350464e-07 0)
(-0 1.377542100045399e-07 0)
(-0 1.486165875832176e-07 0)
(-0 1.592996065406225e-07 0)
(-0 1.697991766468109e-07 0)
(-0 1.801099484799311e-07 0)
(-0 1.902252753855468e-07 0)
(-0 2.001371867437091e-07 0)
(-0 2.098363734966141e-07 0)
(-0 2.193121869688425e-07 0)
(-0 2.285526520680267e-07 0)
(-0 2.375444959798233e-07 0)
(-0 2.462731934600998e-07 0)
(-0 2.547230297714403e-07 0)
(-0 2.628771822023961e-07 0)
(-0 2.707178209385763e-07 0)
(-0 2.78226229817905e-07 0)
(-0 2.853829471934377e-07 0)
(-0 2.921679267445888e-07 0)
(-0 2.98560717624678e-07 0)
(-0 3.04540662818718e-07 0)
(-0 3.10087114027214e-07 0)
(-0 3.151796608146174e-07 0)
(-0 3.19798371198809e-07 0)
(-0 3.239240403520791e-07 0)
(-0 3.275384436804364e-07 0)
(-0 3.306245902839227e-07 0)
(-0 3.331669726397301e-07 0)
(-0 3.351518078223596e-07 0)
(-0 3.365672526476943e-07 0)
(-0 7.109840310334908e-09 0)
(-0 2.11047268348585e-08 0)
(-0 3.48802046214639e-08 0)
(-0 4.844192872658588e-08 0)
(-0 6.179508877427846e-08 0)
(-0 7.49444338838734e-08 0)
(-0 8.789414050049023e-08 0)
(-0 1.00647688978191e-07 0)
(-0 1.132077486703535e-07 0)
(-0 1.255760713862298e-07 0)
(-0 1.37753393189576e-07 0)
(-0 1.49739344641371e-07 0)
(-0 1.615323697210854e-07 0)
(-0 1.731296537970253e-07 0)
(-0 1.845270611533094e-07 0)
(-0 1.957190827163331e-07 0)
(-0 2.066987947541137e-07 0)
(-0 2.174578294441886e-07 0)
(-0 2.279863583157153e-07 0)
(-0 2.382730896641367e-07 0)
(-0 2.483052811065042e-07 0)
(-0 2.580687684854017e-07 0)
(-0 2.675480123316051e-07 0)
(-0 2.767261630512652e-07 0)
(-0 2.855851459030868e-07 0)
(-0 2.941057666649267e-07 0)
(-0 3.022678386484165e-07 0)
(-0 3.1005033139716e-07 0)
(-0 3.174315409946647e-07 0)
(-0 3.243892814132875e-07 0)
(-0 3.30901095763074e-07 0)
(-0 3.369444856665774e-07 0)
(-0 3.424971563204811e-07 0)
(-0 3.475372741469166e-07 0)
(-0 3.520437333380904e-07 0)
(-0 3.559964271171264e-07 0)
(-0 3.593765192320655e-07 0)
(-0 3.621667110590975e-07 0)
(-0 3.643514992883751e-07 0)
(-0 3.659174057359591e-07 0)
(-0 7.681479062752188e-09 0)
(-0 2.279617600675919e-08 0)
(-0 3.766898780433605e-08 0)
(-0 5.230653986897086e-08 0)
(-0 6.671493180722291e-08 0)
(-0 8.089976340966544e-08 0)
(-0 9.48659945396259e-08 0)
(-0 1.086178144342987e-07 0)
(-0 1.221585200921213e-07 0)
(-0 1.354904035398267e-07 0)
(-0 1.48614647903365e-07 0)
(-0 1.615312323460225e-07 0)
(-0 1.742388460820416e-07 0)
(-0 1.867348118223693e-07 0)
(-0 1.99015019158449e-07 0)
(-0 2.110738685376582e-07 0)
(-0 2.22904226627328e-07 0)
(-0 2.34497393999963e-07 0)
(-0 2.458430861964692e-07 0)
(-0 2.569294293321085e-07 0)
(-0 2.677429714957744e-07 0)
(-0 2.782687112499608e-07 0)
(-0 2.884901445580751e-07 0)
(-0 2.983893314377194e-07 0)
(-0 3.079469835521054e-07 0)
(-0 3.17142573794997e-07 0)
(-0 3.259544686854162e-07 0)
(-0 3.343600840559144e-07 0)
(-0 3.423360640845589e-07 0)
(-0 3.498584831830197e-07 0)
(-0 3.569030696164618e-07 0)
(-0 3.634454490112846e-07 0)
(-0 3.694614051338036e-07 0)
(-0 3.749271545421464e-07 0)
(-0 3.798196309867773e-07 0)
(-0 3.841167748383941e-07 0)
(-0 3.877978224355885e-07 0)
(-0 3.90843590098224e-07 0)
(-0 3.932367473026515e-07 0)
(-0 3.949620598014422e-07 0)
(-0 8.24520503305711e-09 0)
(-0 2.446330577159546e-08 0)
(-0 4.041659115740191e-08 0)
(-0 5.611277347832592e-08 0)
(-0 7.155897214594608e-08 0)
(-0 8.67617408919767e-08 0)
(-0 1.017269205453133e-07 0)
(-0 1.164595018190747e-07 0)
(-0 1.309634976910127e-07 0)
(-0 1.452418250970633e-07 0)
(-0 1.592961958039459e-07 0)
(-0 1.731270164800789e-07 0)
(-0 1.867332981424083e-07 0)
(-0 2.001125753179267e-07 0)
(-0 2.1326083542054e-07 0)
(-0 2.26172459004361e-07 0)
(-0 2.38840171710965e-07 0)
(-0 2.512550088778233e-07 0)
(-0 2.634062939144684e-07 0)
(-0 2.752816316775763e-07 0)
(-0 2.868669181804479e-07 0)
(-0 2.981463680493143e-07 0)
(-0 3.091025611796278e-07 0)
(-0 3.197165100392962e-07 0)
(-0 3.299677489999104e-07 0)
(-0 3.39834446936912e-07 0)
(-0 3.492935441097809e-07 0)
(-0 3.583209139982851e-07 0)
(-0 3.668915503173862e-07 0)
(-0 3.749797788531541e-07 0)
(-0 3.825594930552066e-07 0)
(-0 3.89604411500473e-07 0)
(-0 3.960883544380793e-07 0)
(-0 4.019855356859911e-07 0)
(-0 4.072708652495105e-07 0)
(-0 4.119202572650652e-07 0)
(-0 4.159109373505736e-07 0)
(-0 4.192217432510424e-07 0)
(-0 4.218334125955122e-07 0)
(-0 4.237288378379646e-07 0)
(-0 8.800700987633158e-09 0)
(-0 2.610519486528598e-08 0)
(-0 4.312152641437007e-08 0)
(-0 5.985861700673584e-08 0)
(-0 7.63247206169907e-08 0)
(-0 9.252745251858059e-08 0)
(-0 1.084736358724228e-07 0)
(-0 1.241691588442504e-07 0)
(-0 1.396188417359494e-07 0)
(-0 1.548263137709448e-07 0)
(-0 1.697938993364345e-07 0)
(-0 1.845225136537712e-07 0)
(-0 1.990115680206342e-07 0)
(-0 2.132588849430231e-07 0)
(-0 2.272606236497967e-07 0)
(-0 2.410112166556954e-07 0)
(-0 2.545033182085217e-07 0)
(-0 2.677277656201187e-07 0)
(-0 2.806735546359752e-07 0)
(-0 2.933278301409088e-07 0)
(-0 3.056758936231666e-07 0)
(-0 3.177012289196773e-07 0)
(-0 3.293855478321008e-07 0)
(-0 3.407088572252712e-07 0)
(-0 3.516495491822144e-07 0)
(-0 3.621845156758881e-07 0)
(-0 3.722892890073824e-07 0)
(-0 3.819382089325069e-07 0)
(-0 3.911046169331452e-07 0)
(-0 3.997610774702309e-07 0)
(-0 4.078796252739138e-07 0)
(-0 4.154320367897678e-07 0)
(-0 4.223901228343529e-07 0)
(-0 4.287260383718549e-07 0)
(-0 4.344126041894861e-07 0)
(-0 4.394236342394962e-07 0)
(-0 4.437342616784633e-07 0)
(-0 4.473212563291415e-07 0)
(-0 4.501633264015324e-07 0)
(-0 4.522413838157751e-07 0)
(-0 9.34757784089419e-09 0)
(-0 2.772071406804056e-08 0)
(-0 4.578196767159377e-08 0)
(-0 6.354159589665922e-08 0)
(-0 8.100910589648222e-08 0)
(-0 9.819328539962792e-08 0)
(-0 1.151020441341566e-07 0)
(-0 1.317422662021459e-07 0)
(-0 1.481196727866542e-07 0)
(-0 1.642386947476405e-07 0)
(-0 1.801023548437086e-07 0)
(-0 1.957121595008717e-07 0)
(-0 2.110680002362848e-07 0)
(-0 2.261680650326217e-07 0)
(-0 2.410087601462128e-07 0)
(-0 2.555846430178635e-07 0)
(-0 2.69888367138088e-07 0)
(-0 2.839106398966577e-07 0)
(-0 2.976401946177002e-07 0)
(-0 3.110637781430749e-07 0)
(-0 3.24166155474104e-07 0)
(-0 3.369301331087696e-07 0)
(-0 3.493366028095402e-07 0)
(-0 3.613646075941911e-07 0)
(-0 3.729914317425286e-07 0)
(-0 3.841927165357402e-07 0)
(-0 3.949426032677474e-07 0)
(-0 4.052139047614909e-07 0)
(-0 4.149783061581465e-07 0)
(-0 4.242065950965588e-07 0)
(-0 4.328689205440323e-07 0)
(-0 4.409350784733587e-07 0)
(-0 4.483748213236178e-07 0)
(-0 4.551581867858183e-07 0)
(-0 4.612558400115265e-07 0)
(-0 4.666394219931643e-07 0)
(-0 4.712818958015068e-07 0)
(-0 4.75157881842133e-07 0)
(-0 4.78243973556277e-07 0)
(-0 4.805190120292064e-07 0)
(-0 9.885371876807636e-09 0)
(-0 2.930851854593619e-08 0)
(-0 4.839573937222713e-08 0)
(-0 6.715875760203399e-08 0)
(-0 8.560845485461082e-08 0)
(-0 1.037549044322748e-07 0)
(-0 1.216072087096306e-07 0)
(-0 1.391733477783042e-07 0)
(-0 1.564600386237167e-07 0)
(-0 1.734726043055796e-07 0)
(-0 1.902148528124978e-07 0)
(-0 2.066889654616344e-07 0)
(-0 2.228953949156783e-07 0)
(-0 2.388327730902985e-07 0)
(-0 2.544978294250378e-07 0)
(-0 2.698853201884629e-07 0)
(-0 2.849879696836048e-07 0)
(-0 2.997964244115379e-07 0)
(-0 3.142992214381049e-07 0)
(-0 3.284827723894866e-07 0)
(-0 3.423313646734087e-07 0)
(-0 3.558271816793081e-07 0)
(-0 3.689503438449499e-07 0)
(-0 3.816789725771636e-07 0)
(-0 3.939892790639248e-07 0)
(-0 4.058556799912761e-07 0)
(-0 4.172509420521837e-07 0)
(-0 4.281463568694312e-07 0)
(-0 4.385119475102593e-07 0)
(-0 4.483167071046009e-07 0)
(-0 4.575288691545855e-07 0)
(-0 4.661162079183466e-07 0)
(-0 4.740463657706801e-07 0)
(-0 4.812872027318944e-07 0)
(-0 4.878071615127411e-07 0)
(-0 4.935756396108867e-07 0)
(-0 4.985633584559323e-07 0)
(-0 5.027427186999691e-07 0)
(-0 5.060881310713042e-07 0)
(-0 5.085763000207664e-07 0)
(-0 1.041354268178494e-08 0)
(-0 3.086704228309582e-08 0)
(-0 5.09603077064576e-08 0)
(-0 7.070666028930736e-08 0)
(-0 9.011847877611841e-08 0)
(-0 1.09207236164455e-07 0)
(-0 1.279833342963141e-07 0)
(-0 1.464559498731788e-07 0)
(-0 1.64632891066459e-07 0)
(-0 1.825204641116986e-07 0)
(-0 2.001233494923953e-07 0)
(-0 2.174444875362632e-07 0)
(-0 2.344849734624077e-07 0)
(-0 2.512439621315717e-07 0)
(-0 2.677185829629903e-07 0)
(-0 2.839038656903048e-07 0)
(-0 2.997926778354639e-07 0)
(-0 3.153756749837495e-07 0)
(-0 3.3064126514503e-07 0)
(-0 3.455755886856364e-07 0)
(-0 3.60162515510561e-07 0)
(-0 3.743836613637826e-07 0)
(-0 3.882184252893786e-07 0)
(-0 4.016440504473015e-07 0)
(-0 4.146357105887207e-07 0)
(-0 4.271666245422236e-07 0)
(-0 4.392082010098104e-07 0)
(-0 4.507302157758128e-07 0)
(-0 4.61701023038055e-07 0)
(-0 4.720878019174743e-07 0)
(-0 4.818568382291996e-07 0)
(-0 4.909738402560423e-07 0)
(-0 4.994042855345744e-07 0)
(-0 5.071137935733715e-07 0)
(-0 5.140685170709932e-07 0)
(-0 5.202355417740266e-07 0)
(-0 5.255832829110743e-07 0)
(-0 5.300818646459684e-07 0)
(-0 5.337034691892644e-07 0)
(-0 5.364226309347869e-07 0)
(-0 1.09314718711466e-08 0)
(-0 3.239449482954982e-08 0)
(-0 5.347277577730397e-08 0)
(-0 7.418136667671284e-08 0)
(-0 9.453426601121502e-08 0)
(-0 1.145444602983553e-07 0)
(-0 1.342237572265587e-07 0)
(-0 1.535826302255698e-07 0)
(-0 1.72630073541547e-07 0)
(-0 1.913734671264695e-07 0)
(-0 2.098184508879177e-07 0)
(-0 2.27968808078476e-07 0)
(-0 2.458263578335353e-07 0)
(-0 2.63390857091937e-07 0)
(-0 2.806599123557422e-07 0)
(-0 2.976289019639431e-07 0)
(-0 3.142909097708869e-07 0)
(-0 3.306366713348229e-07 0)
(-0 3.466545339366851e-07 0)
(-0 3.623304319654444e-07 0)
(-0 3.776478794249736e-07 0)
(-0 3.925879815378339e-07 0)
(-0 4.071294676405106e-07 0)
(-0 4.212487477745194e-07 0)
(-0 4.349199955637078e-07 0)
(-0 4.481152601052004e-07 0)
(-0 4.608046096520221e-07 0)
(-0 4.729563097760485e-07 0)
(-0 4.845370384002345e-07 0)
(-0 4.955121394937786e-07 0)
(-0 5.058459162395771e-07 0)
(-0 5.155019630223547e-07 0)
(-0 5.244435335886414e-07 0)
(-0 5.326339401943698e-07 0)
(-0 5.400369755712596e-07 0)
(-0 5.466173463193223e-07 0)
(-0 5.523411032337534e-07 0)
(-0 5.571760517271983e-07 0)
(-0 5.610921253158839e-07 0)
(-0 5.640616947487399e-07 0)
(-0 1.14384626954583e-08 0)
(-0 3.388886059985484e-08 0)
(-0 5.59298828960957e-08 0)
(-0 7.757844348893475e-08 0)
(-0 9.88502816345256e-08 0)
(-0 1.19760009502243e-07 0)
(-0 1.403209453013686e-07 0)
(-0 1.605449576714784e-07 0)
(-0 1.804423203147162e-07 0)
(-0 2.00021576108866e-07 0)
(-0 2.192894101952062e-07 0)
(-0 2.382505317840247e-07 0)
(-0 2.569075646633158e-07 0)
(-0 2.752609466326814e-07 0)
(-0 2.933088383153062e-07 0)
(-0 3.110470420270741e-07 0)
(-0 3.28468931604939e-07 0)
(-0 3.455653943188501e-07 0)
(-0 3.623247862157916e-07 0)
(-0 3.787329024743838e-07 0)
(-0 3.947729645877204e-07 0)
(-0 4.10425626443683e-07 0)
(-0 4.256690016368868e-07 0)
(-0 4.404787146212238e-07 0)
(-0 4.548279785859551e-07 0)
(-0 4.686877031889424e-07 0)
(-0 4.820266354689746e-07 0)
(-0 4.948115373243637e-07 0)
(-0 5.07007402800256e-07 0)
(-0 5.185777179584173e-07 0)
(-0 5.294847651744048e-07 0)
(-0 5.396899721746844e-07 0)
(-0 5.491543038683571e-07 0)
(-0 5.57838691987853e-07 0)
(-0 5.657044937936217e-07 0)
(-0 5.727139668583168e-07 0)
(-0 5.788307426900331e-07 0)
(-0 5.84020278492624e-07 0)
(-0 5.882502655374246e-07 0)
(-0 5.914909629423478e-07 0)
(-0 1.193374061508128e-08 0)
(-0 3.534790096158326e-08 0)
(-0 5.832800837683055e-08 0)
(-0 8.089296701019618e-08 0)
(-0 1.030603746967683e-07 0)
(-0 1.248465782084588e-07 0)
(-0 1.462665079070415e-07 0)
(-0 1.673335232893514e-07 0)
(-0 1.880592683219885e-07 0)
(-0 2.08453535745204e-07 0)
(-0 2.285241397987596e-07 0)
(-0 2.482767970863234e-07 0)
(-0 2.677150155496159e-07 0)
(-0 2.868399917694558e-07 0)
(-0 3.056505170489009e-07 0)
(-0 3.241428929651687e-07 0)
(-0 3.423108573041344e-07 0)
(-0 3.60145521517131e-07 0)
(-0 3.776353210690544e-07 0)
(-0 3.947659802852351e-07 0)
(-0 4.115204935592193e-07 0)
(-0 4.278791250620548e-07 0)
(-0 4.438194294026118e-07 0)
(-0 4.593162960313052e-07 0)
(-0 4.74342020552752e-07 0)
(-0 4.888664065002763e-07 0)
(-0 5.028569014908944e-07 0)
(-0 5.162787719591257e-07 0)
(-0 5.290953207599565e-07 0)
(-0 5.412681516897422e-07 0)
(-0 5.527574842088543e-07 0)
(-0 5.635225201404005e-07 0)
(-0 5.735218616467991e-07 0)
(-0 5.827139761967712e-07 0)
(-0 5.910576995330969e-07 0)
(-0 5.985127621088269e-07 0)
(-0 6.050403187243637e-07 0)
(-0 6.106034563362108e-07 0)
(-0 6.151676536437614e-07 0)
(-0 6.187011572754246e-07 0)
(-0 1.241645493061929e-08 0)
(-0 3.676915934937028e-08 0)
(-0 6.066318019179619e-08 0)
(-0 8.411953520879551e-08 0)
(-0 1.071577936413399e-07 0)
(-0 1.297961410615453e-07 0)
(-0 1.520512171666811e-07 0)
(-0 1.739379638712311e-07 0)
(-0 1.95469482529661e-07 0)
(-0 2.166568994255779e-07 0)
(-0 2.375092389530812e-07 0)
(-0 2.580333041935489e-07 0)
(-0 2.782335648564083e-07 0)
(-0 2.981120528061926e-07 0)
(-0 3.176682656413459e-07 0)
(-0 3.368990790243792e-07 0)
(-0 3.557986686905304e-07 0)
(-0 3.743584432871204e-07 0)
(-0 3.925669894240717e-07 0)
(-0 4.1041003055584e-07 0)
(-0 4.278704015769614e-07 0)
(-0 4.449280413104455e-07 0)
(-0 4.615600054145002e-07 0)
(-0 4.777405026415126e-07 0)
(-0 4.93440957861644e-07 0)
(-0 5.086301058077098e-07 0)
(-0 5.232741200825243e-07 0)
(-0 5.373367825342673e-07 0)
(-0 5.507796985391003e-07 0)
(-0 5.63562563856792e-07 0)
(-0 5.756434882917124e-07 0)
(-0 5.869793800732781e-07 0)
(-0 5.975263923022354e-07 0)
(-0 6.072404286682608e-07 0)
(-0 6.160776997943727e-07 0)
(-0 6.239953142803922e-07 0)
(-0 6.309518807705546e-07 0)
(-0 6.369080911476141e-07 0)
(-0 6.418272540457334e-07 0)
(-0 6.456757423833571e-07 0)
(-0 1.288568155312318e-08 0)
(-0 3.814996962788049e-08 0)
(-0 6.293108883005361e-08 0)
(-0 8.725228687740088e-08 0)
(-0 1.111352104224618e-07 0)
(-0 1.345999816396045e-07 0)
(-0 1.576650408342782e-07 0)
(-0 1.803469985138126e-07 0)
(-0 2.026604957082371e-07 0)
(-0 2.246180716518684e-07 0)
(-0 2.4623003824202e-07 0)
(-0 2.675043609807974e-07 0)
(-0 2.884465463802883e-07 0)
(-0 3.090595360712878e-07 0)
(-0 3.293436081018653e-07 0)
(-0 3.492962861459994e-07 0)
(-0 3.689122575666781e-07 0)
(-0 3.881833014965256e-07 0)
(-0 4.070982283190119e-07 0)
(-0 4.25642832164841e-07 0)
(-0 4.437998582955615e-07 0)
(-0 4.615489875486368e-07 0)
(-0 4.788668403881511e-07 0)
(-0 4.957270035684644e-07 0)
(-0 5.121000829985143e-07 0)
(-0 5.279537871074824e-07 0)
(-0 5.432530458530733e-07 0)
(-0 5.579601714381274e-07 0)
(-0 5.720350677036869e-07 0)
(-0 5.854354958494785e-07 0)
(-0 5.981174042788931e-07 0)
(-0 6.100353295212257e-07 0)
(-0 6.211428727743666e-07 0)
(-0 6.3139325202224e-07 0)
(-0 6.407399224608868e-07 0)
(-0 6.491372482195485e-07 0)
(-0 6.565411974257912e-07 0)
(-0 6.629100241671922e-07 0)
(-0 6.682049024996161e-07 0)
(-0 6.723904844290786e-07 0)
(-0 1.334042699040483e-08 0)
(-0 3.948746790467687e-08 0)
(-0 6.512710666372967e-08 0)
(-0 9.028492818359423e-08 0)
(-0 1.149847537999347e-07 0)
(-0 1.39248732000434e-07 0)
(-0 1.630971875596972e-07 0)
(-0 1.86548479038771e-07 0)
(-0 2.096188634184685e-07 0)
(-0 2.323223669752093e-07 0)
(-0 2.546706618271684e-07 0)
(-0 2.766729478783935e-07 0)
(-0 2.983358401702173e-07 0)
(-0 3.196632619134438e-07 0)
(-0 3.40656343721987e-07 0)
(-0 3.613133297997304e-07 0)
(-0 3.816294920492708e-07 0)
(-0 4.015970532777974e-07 0)
(-0 4.212051208786902e-07 0)
(-0 4.404396325790271e-07 0)
(-0 4.592833160805942e-07 0)
(-0 4.777156647098847e-07 0)
(-0 4.957129315637487e-07 0)
(-0 5.132481451322259e-07 0)
(-0 5.302911500441293e-07 0)
(-0 5.468086774579502e-07 0)
(-0 5.627644507399716e-07 0)
(-0 5.781193334257255e-07 0)
(-0 5.928315279725574e-07 0)
(-0 6.068568352860898e-07 0)
(-0 6.201489860763339e-07 0)
(-0 6.326600551784494e-07 0)
(-0 6.443409682097125e-07 0)
(-0 6.551421052590746e-07 0)
(-0 6.650139976256483e-07 0)
(-0 6.739081003495064e-07 0)
(-0 6.817776065546981e-07 0)
(-0 6.885782550611725e-07 0)
(-0 6.942690863884865e-07 0)
(-0 6.988131404134116e-07 0)
(-0 1.377963361432674e-08 0)
(-0 4.07786079606742e-08 0)
(-0 6.724631307334423e-08 0)
(-0 9.321076695247576e-08 0)
(-0 1.18698052195652e-07 0)
(-0 1.437324234988231e-07 0)
(-0 1.683361650348301e-07 0)
(-0 1.925294548234489e-07 0)
(-0 2.163302348722785e-07 0)
(-0 2.397540862218428e-07 0)
(-0 2.628141083581927e-07 0)
(-0 2.855208027640891e-07 0)
(-0 3.078819606669755e-07 0)
(-0 3.299025553089046e-07 0)
(-0 3.515846393103015e-07 0)
(-0 3.729272479256886e-07 0)
(-0 3.939263091958613e-07 0)
(-0 4.145745621900819e-07 0)
(-0 4.348614847098165e-07 0)
(-0 4.547732320039855e-07 0)
(-0 4.74292588244045e-07 0)
(-0 4.93398932755058e-07 0)
(-0 5.120682233385099e-07 0)
(-0 5.302729995107625e-07 0)
(-0 5.479824091888446e-07 0)
(-0 5.651622633643642e-07 0)
(-0 5.81775124697192e-07 0)
(-0 5.97780437788694e-07 0)
(-0 6.131347111480155e-07 0)
(-0 6.277917634002088e-07 0)
(-0 6.417030487359011e-07 0)
(-0 6.548180782712402e-07 0)
(-0 6.670849537292928e-07 0)
(-0 6.7845102599472e-07 0)
(-0 6.888636814679888e-07 0)
(-0 6.982712414783806e-07 0)
(-0 7.06623933207957e-07 0)
(-0 7.138748589345834e-07 0)
(-0 7.199808779965035e-07 0)
(-0 7.249033887120597e-07 0)
(-0 1.42021862583329e-08 0)
(-0 4.20201804214475e-08 0)
(-0 6.928352551212778e-08 0)
(-0 9.60227549068117e-08 0)
(-0 1.222662863774366e-07 0)
(-0 1.480405491806468e-07 0)
(-0 1.733698513716619e-07 0)