/*--------------------------------*- C++ -*----------------------------------*\
| =========                 |                                                 |
| \\      /  F ield         | OpenFOAM: The Open Source CFD Toolbox           |
|  \\    /   O peration     | Version:  2206                                  |
|   \\  /    A nd           | Website:  www.openfoam.com                      |
|    \\/     M anipulation  |                                                 |
\*---------------------------------------------------------------------------*/
FoamFile
{
    version     2.0;
    format      ascii;
    arch        "LSB;label=32;scalar=64";
    class       volVectorField;
    location    "2";
    object      ddt0(U);
}
// * * * * * * * * * * * * * * * * * * * * * * * * * * * * * * * * * * * * * //

dimensions      [0 1 -2 0 0 0 0];

internalField   nonuniform List<vector> 
18114
(
(-9.903353388603751e-07 3.562150621632613e-06 7.552305791902837e-26)
(-6.600596746769675e-06 1.54658552590956e-06 1.7178975366252e-26)
(-1.881623114160788e-05 5.044163167836161e-06 -1.347262546534562e-25)
(-3.512688717880308e-05 7.914418382794651e-06 7.165872549405361e-26)
(-5.345522939749195e-05 9.548410725417653e-06 -1.398848196773584e-25)
(-7.28903724379474e-05 8.487183083534465e-06 1.889236329984706e-25)
(-8.949034605606435e-05 6.681137271242962e-06 -1.765626090923605e-25)
(-9.995443194234074e-05 4.3697518960148e-06 8.36764975608642e-26)
(-0.0001048312716946127 1.823022793708711e-06 -5.349198161255448e-26)
(-0.0001062464246182281 -3.070163125398459e-07 -1.803192238961768e-26)
(-0.0001057479515725741 -1.531377446443726e-06 -5.678374935536935e-26)
(-0.0001037186175699656 -2.298087888646964e-06 -5.934018435835913e-28)
(-0.0001029923518555234 -1.917739527223747e-08 4.981320350142652e-26)
(-0.0001030401976100703 4.605504579867491e-06 -3.835696943162636e-26)
(-0.0001098795840865208 7.516287480588666e-06 8.451314606278831e-26)
(-0.0001178090813306161 7.873443233722005e-06 6.961343762349528e-26)
(-0.0001267489797345554 5.980820442218508e-06 -1.610172273760222e-26)
(-0.0001349378011679253 3.057806902937881e-06 -7.25807912749647e-26)
(-0.0001410434946251227 5.650908216229622e-07 6.361856797263897e-26)
(-0.0001452089881462723 -2.588090450210411e-07 -6.807979135140165e-26)
(-0.0001478871690911275 2.356105543943013e-07 1.848597574471586e-26)
(-0.0001498707849227077 1.237972937583476e-06 -4.547957364877266e-26)
(-0.0001512257911837059 1.73682603685807e-06 3.867938187932816e-26)
(-0.0001513159038402332 9.569236767696192e-07 1.182574096543738e-26)
(-0.000149924014947557 -4.731762169921123e-07 -2.896464483020383e-26)
(-0.0001467582288433709 -1.909294106081254e-06 3.051468639335641e-26)
(-0.0001419762511161656 -3.239382560695422e-06 -4.79182556643675e-26)
(-0.0001362243512288335 -4.459777534845142e-06 -2.984099167606209e-26)
(-0.0001295330110698889 -5.314309004996013e-06 1.806406110859333e-26)
(-0.0001223320022584366 -5.839255718958506e-06 6.213382495931875e-27)
(-0.0001148772114071481 -6.010555486002555e-06 -2.466866525339848e-27)
(-0.0001070499461492667 -6.145581792607265e-06 -2.003975782256511e-26)
(-9.882386694838079e-05 -6.18822197527743e-06 -1.898908873605047e-26)
(-9.004421685585869e-05 -6.303687544834741e-06 1.849069034185568e-26)
(-8.063091304455636e-05 -6.46934603355832e-06 -4.720186952659836e-27)
(-7.058435328491216e-05 -6.947601389958864e-06 7.44810968429271e-27)
(-5.995310439150848e-05 -7.677558679052664e-06 3.208423605528035e-30)
(-4.902375163109407e-05 -8.570697672376028e-06 9.743191862807175e-27)
(-3.781206635444828e-05 -9.377497147710996e-06 1.320881568939294e-27)
(-2.643227719923961e-05 -9.897791360068609e-06 2.750424891742525e-27)
(-1.868679148747911e-06 1.997491701857651e-06 -2.7616058742062e-25)
(2.387951571676621e-06 1.873906767122916e-05 -1.887020303114565e-25)
(-2.179155094184798e-05 2.430640931292031e-05 2.332603886982765e-25)
(-3.828282181913278e-05 2.650436893633198e-05 -2.573994090281313e-25)
(-5.51642040337328e-05 2.479464328730734e-05 1.52765715001196e-26)
(-7.371673498445573e-05 3.06778035170069e-05 -1.135793630425447e-25)
(-9.019111527290926e-05 1.782502416488589e-05 2.825470372089974e-25)
(-0.0001032526168950532 1.010157708304938e-05 2.989233320124101e-26)
(-0.0001125303213422713 5.242996377900834e-06 -3.724566688369277e-26)
(-0.000118008110347798 2.030711703071744e-06 -1.415878598400497e-25)
(-0.0001202007352284505 2.672278454724619e-08 -7.26149271332963e-26)
(-0.0001185522354692022 -8.104795625662399e-07 -3.383564503751199e-25)
(-0.0001147380440990053 1.177970765238982e-07 -2.877647310898586e-25)
(-0.0001111525976909796 2.534145053932785e-06 -2.777826756789087e-26)
(-0.0001083469994440207 6.005516102748685e-06 5.66513476126375e-26)
(-0.0001068628876735424 9.297653392437887e-06 -3.281355435082285e-25)
(-0.0001079740747675398 1.119049103713721e-05 1.79400599482219e-26)
(-0.0001123239821416144 1.114978072931944e-05 2.043319601466335e-25)
(-0.0001193938640305654 9.811760158429363e-06 -1.114977470150715e-25)
(-0.0001278807301089682 7.655469413276213e-06 9.543590264255359e-26)
(-0.0001358479238544768 5.131822379765065e-06 1.088962836918407e-25)
(-0.0001424907783126625 2.435422637506434e-06 9.899220084345195e-26)
(-0.0001449921587480898 -1.163721635633721e-07 1.153588422512334e-25)
(-0.0001443927642929757 -2.833364480297455e-06 6.079906977390942e-26)
(-0.0001405898742372602 -4.649403321831526e-06 3.436439971159662e-26)
(-0.0001342360243552437 -5.987848970452822e-06 1.392607054252773e-26)
(-0.0001261457726653707 -6.822492480274826e-06 -1.979173366654778e-26)
(-0.0001182926572836284 -7.296452301448325e-06 1.941286201825526e-27)
(-0.0001113286982007762 -7.682416226358317e-06 -4.593733400939647e-26)
(-0.0001055929934858888 -8.087601353954323e-06 2.107196388678155e-26)
(-0.0001019339953985979 -8.60597333545191e-06 -2.139698994765004e-26)
(-0.0001000790461669943 -9.553702623778271e-06 3.852136134685111e-27)
(-9.843072316738966e-05 -1.066328638640262e-05 3.128716913845903e-26)
(-9.726578794530728e-05 -1.196478181568617e-05 -4.752223656271595e-26)
(-9.557643055187103e-05 -1.319786306753395e-05 -5.594240292607762e-26)
(-9.299847143418698e-05 -1.414723905539164e-05 -2.353516787307163e-26)
(-9.000857603000096e-05 -1.428444639387276e-05 -1.144288828239588e-26)
(-8.571246345189844e-05 -1.391752126075551e-05 -3.010216588128477e-27)
(-8.078303040369561e-05 -1.325159460279362e-05 7.177834299244129e-27)
(-7.522986972030354e-05 -1.257401131482522e-05 -5.732026308595853e-27)
(-1.132271101722464e-06 4.653132046989882e-06 1.231461310372472e-25)
(-4.030744217366385e-06 2.298392988116501e-05 -2.833521323954494e-25)
(-1.298355521377427e-05 3.831767230273438e-05 -2.467438794768912e-25)
(-3.068814162091921e-05 4.633788694702367e-05 -6.946907193932438e-25)
(-5.125281865633059e-05 4.81743952043653e-05 -2.878846036136874e-25)
(-7.499277401151341e-05 4.43614160672086e-05 -5.577135260228849e-25)
(-9.403954541545486e-05 3.694116340669732e-05 4.787324200827238e-25)
(-0.0001128795459158477 2.730136893139904e-05 1.83426796291829e-26)
(-0.0001273008355807704 1.65959522045311e-05 2.4519673482973e-25)
(-0.0001329474620771899 6.686392969270817e-06 1.081661470586751e-25)
(-0.0001334926036247115 -9.087522205547508e-07 -6.366978230703161e-26)
(-0.0001307635989265518 -1.12526093740725e-05 5.010443109474381e-25)
(-0.0001245171593950207 -4.665077601421899e-06 6.028689011214699e-25)
(-0.0001187639993813573 -1.816091299683032e-06 6.227211767651782e-25)
(-0.0001126510370404782 1.789506302889958e-06 -9.898827601867966e-26)
(-0.0001081352787467698 7.928797773664598e-06 1.95754804332427e-25)
(-0.0001062910536205163 1.292220076557549e-05 2.93421729936894e-25)
(-0.0001073666274140514 1.565766016445205e-05 -1.566643148824398e-25)
(-0.0001113414812162444 1.626055321009694e-05 -1.424047508538544e-25)
(-0.0001178861170596042 1.526674767056059e-05 -2.674389392494291e-25)
(-0.0001257057376218817 1.294169734279621e-05 -1.529515974599647e-25)
(-0.0001332773292639291 9.265219088020539e-06 -9.957750831715654e-26)
(-0.0001390314310281843 4.824371505320007e-06 -1.665517977859897e-25)
(-0.0001416174620895162 -2.543247711218331e-06 3.993414946527184e-26)
(-0.0001402253201186637 -9.661391764256082e-06 1.05048465867033e-25)
(-0.0001343537058474352 -1.569219083565979e-05 1.073155579427417e-27)
(-0.0001242577861525543 -1.950473334683314e-05 4.5977772231973e-27)
(-0.0001110161467230886 -2.069049663909968e-05 4.972834148544462e-26)
(-9.574475873568566e-05 -1.990488647098266e-05 -5.070783158455326e-26)
(-8.037284015337367e-05 -1.809793113246083e-05 -1.760590037468428e-26)
(-6.387060603189005e-05 -1.265060573798351e-05 -5.346724057954076e-26)
(-5.23917885885939e-05 -1.033315529807663e-05 1.285717049144242e-25)
(-4.162957117014639e-05 -8.747641282538649e-06 -3.205750411507147e-26)
(-3.695382952456459e-05 -8.370157734954363e-06 -2.310587150590996e-26)
(-3.431745463229616e-05 -8.881137582982574e-06 5.503343698406193e-26)
(-3.414099926142384e-05 -1.10209547245311e-05 2.242864906690948e-27)
(-3.515119358607358e-05 -1.40807308877578e-05 1.550350451737323e-26)
(-3.491986569284861e-05 -1.736234257321477e-05 3.663809674250756e-27)
(-3.501846229179333e-05 -2.020583207616956e-05 8.124121468650483e-27)
(-3.054935404376212e-05 -2.114909792595991e-05 1.115662008247059e-26)
(-7.18479491937079e-07 6.212265473258443e-06 -5.986597018499645e-26)
(-4.018804326799489e-06 3.045965274964529e-05 6.51238301253788e-25)
(-1.288560922678614e-05 5.14639974672932e-05 -6.256096294333266e-25)
(-2.991885127881326e-05 6.422095942200479e-05 9.118832550488693e-25)
(-5.135628227576932e-05 6.921157051577164e-05 7.955673769203716e-25)
(-7.398475370258671e-05 6.775723786294841e-05 9.718448463952706e-25)
(-9.687730569148997e-05 5.820582773699981e-05 -9.801485435609314e-25)
(-0.0001176209329013963 4.376480592252718e-05 -2.149419671040501e-25)
(-0.0001319885370260169 2.732903882214006e-05 5.391897559971245e-26)
(-0.0001435951741157127 1.041787515240301e-05 2.851151546398137e-25)
(-0.0001440567055367985 -1.919602280489137e-06 5.538143564986728e-25)
(-0.0001432292521678144 -1.051849441010834e-05 3.089723294143769e-26)
(-0.0001351056296214345 -1.284089386973215e-05 -5.111403534440194e-25)
(-0.0001256958547320608 -1.022391522929468e-05 -1.913815413154007e-25)
(-0.000112721424299647 -4.345323222984885e-06 -1.383975343868341e-26)
(-0.0001053923410464006 2.874706933014543e-06 -4.111971016618147e-25)
(-9.879459760296669e-05 1.059250912050997e-05 -2.144533704120326e-25)
(-9.771888781187876e-05 1.535427830792654e-05 1.391776902879605e-25)
(-0.000102556278334411 2.135054131716835e-05 2.248185919748634e-25)
(-0.000111026380393616 2.317292972392041e-05 6.945527823547105e-25)
(-0.0001209114380976955 2.146150841024517e-05 2.21656581426348e-25)
(-0.0001301171301464356 1.637385715758446e-05 -9.403607617496681e-26)
(-0.0001375298974155301 8.410060040373236e-06 -2.15922611901483e-25)
(-0.0001419051146010952 -1.533301509107067e-06 6.07898405452005e-26)
(-0.0001421519250043851 -1.208018750301041e-05 -2.591597483435199e-25)
(-0.0001371691739153428 -2.213209790001885e-05 -6.742628066502447e-26)
(-0.0001270866229696767 -2.990877481052138e-05 -2.510639978087168e-25)
(-0.0001124081532260896 -3.429116150727764e-05 -1.600997177582906e-25)
(-9.410372516019004e-05 -3.657450671771738e-05 8.525041751123282e-26)
(-7.271930113626163e-05 -3.690945166667744e-05 -3.276830802797516e-26)
(-4.964465026662664e-05 -3.482305528867146e-05 3.375973676368471e-26)
(-2.704682022262703e-05 -3.124056180596725e-05 -1.247460933972416e-26)
(-6.846755798834481e-06 -2.602926341314048e-05 6.674258993477533e-26)
(9.292200986591446e-06 -2.09275680562928e-05 8.029611300318988e-26)
(2.021023166199733e-05 -1.726644910496677e-05 8.191075971560153e-28)
(2.609703016165859e-05 -1.475627859915233e-05 1.420487846079726e-26)
(2.787833443913406e-05 -1.282328280375545e-05 1.326423246998361e-26)
(2.790315240281141e-05 -1.368433232038201e-05 -2.382262646497799e-26)
(2.620544240668667e-05 -1.619301548517737e-05 -1.171223531807685e-26)
(2.873384119466394e-05 -1.95139039161777e-05 2.399289758391615e-27)
(-7.285062991629755e-07 8.502049474806194e-06 3.173205444819039e-25)
(-4.433599153068154e-06 3.809489368214204e-05 -3.944232342872021e-26)
(-1.414272380124988e-05 6.52883792976188e-05 9.788422752120249e-25)
(-3.142898492207796e-05 8.408955552168935e-05 -5.210660143287667e-25)
(-5.359117034326388e-05 9.274412515396973e-05 -7.772606317582669e-25)
(-7.696132325267004e-05 9.139679618341155e-05 1.630647529899608e-25)
(-0.0001000549820933802 8.014825237627834e-05 2.090471501695395e-25)
(-0.0001203214385369506 6.187300752250815e-05 -1.066732495322997e-25)
(-0.0001346778141693308 4.018940353894154e-05 -4.338216486259686e-26)
(-0.0001447491187750001 1.771490163040774e-05 -4.488162280924216e-25)
(-0.0001472413993300214 -1.691190578680647e-06 -6.394365051193269e-25)
(-0.0001456374893402388 -1.617286499490914e-05 -4.487223590620827e-25)
(-0.000138585683859898 -2.326410879342854e-05 3.883545806133185e-25)
(-0.000128453457492205 -2.342100955814972e-05 2.960352680832608e-25)
(-0.000116371997080309 -1.69971091621344e-05 8.391145207814094e-26)
(-0.0001064258640372373 -6.636181618478855e-06 8.359130071169716e-25)
(-9.981300875621861e-05 5.86058148210566e-06 -1.345641356584554e-25)
(-9.791374953956112e-05 1.765047860774064e-05 -5.089305065093315e-25)
(-0.0001016395679727359 2.91554300682305e-05 -2.457493342173157e-25)
(-0.0001099552619064232 3.324651306407502e-05 -9.70548050719094e-26)
(-0.0001201880451255726 3.201109889777436e-05 -2.244228199526514e-25)
(-0.0001334749366286897 2.724431592780176e-05 1.708775006295656e-25)
(-0.000143331031973538 1.579829714854087e-05 3.005841908559852e-25)
(-0.0001507155464890513 2.576129454378125e-06 -1.219432203856191e-25)
(-0.0001522464387067137 -1.444575735043946e-05 -1.941629110566402e-26)
(-0.0001459397998421577 -3.109803883877006e-05 -3.745454262077223e-25)
(-0.0001373261089446564 -4.489636057841314e-05 2.526076142328815e-25)
(-0.000113108069939147 -5.542705222660806e-05 9.91801861744392e-26)
(-8.837876643918461e-05 -6.06843264537706e-05 -2.101885096582471e-25)
(-6.212476200914399e-05 -6.357618315026209e-05 7.49990581748993e-26)
(-3.632146592011464e-05 -5.834154143314069e-05 8.390776740468108e-26)
(-1.249473916853195e-05 -5.307809741887858e-05 -9.220061628638024e-26)
(8.507920174879427e-06 -4.412733788774811e-05 -1.378023136806875e-25)
(2.529680599689287e-05 -3.444876419567641e-05 1.944192723760232e-27)
(3.780274043745107e-05 -2.385033487624744e-05 -4.61817786358558e-27)
(4.602100571395466e-05 -1.904474983715576e-05 -3.414531686518557e-26)
(5.162737664027574e-05 -1.444492416117121e-05 1.05647224260493e-26)
(5.593589040295351e-05 -1.725400535645663e-05 6.444790789850872e-26)
(6.036427969606391e-05 -2.108556329840717e-05 3.137552659592784e-26)
(6.700788304381415e-05 -2.540304822815999e-05 -1.516441744707358e-27)
(-7.380538285009477e-07 1.03423547645018e-05 -7.98119014309673e-25)
(-4.704793995546893e-06 4.527368050087458e-05 9.927684519344048e-25)
(-1.497841849671015e-05 7.877110916663933e-05 6.841272562031807e-26)
(-3.246570753474346e-05 0.0001030407550899538 -1.202402495969299e-24)
(-5.486397575776258e-05 0.0001150641284367755 4.762269842396475e-25)
(-7.900381031464351e-05 0.0001141386111933227 -1.859666140071706e-24)
(-0.0001022160152069622 0.000101334357275685 1.067363981701551e-25)
(-0.0001224189671244243 7.925372990981062e-05 2.474699455651958e-25)
(-0.000137120771647109 5.216536781202555e-05 5.2713995352436e-25)
(-0.0001460948768120571 2.39993005926791e-05 8.263267004888676e-25)
(-0.0001485002370430224 -1.174539310944421e-06 9.854744992486806e-26)
(-0.0001455107463699952 -2.013691981534468e-05 5.925156946857136e-25)
(-0.0001380298850364446 -3.074271926410741e-05 -1.109234965662939e-24)
(-0.0001282253627219049 -3.259827631273138e-05 -4.746596165392973e-25)
(-0.0001180192975258886 -2.642184425908754e-05 -4.314806479569736e-25)
(-0.0001093295463313361 -1.405971906585411e-05 -2.316672635629174e-25)
(-0.0001039640833189859 2.085855458426399e-06 5.515078636585948e-25)
(-0.0001034610672722118 1.865999204291608e-05 1.193735468178118e-24)
(-0.0001071241778216969 3.305091107419917e-05 5.355259520740602e-25)
(-0.0001149013031770358 4.219109053797497e-05 -3.97984564618072e-25)
(-0.000126017996458817 4.433791914637133e-05 4.167432159547383e-25)
(-0.0001386672895090722 3.901005481491674e-05 -3.559317010486794e-26)
(-0.000149028721524687 2.567608653415145e-05 -3.786194308067924e-25)
(-0.000156891397935817 7.271687896784318e-06 5.136926167921876e-26)
(-0.0001573485727724665 -1.605932169100244e-05 -2.587798966743815e-28)
(-0.0001527638484625577 -3.857440124837061e-05 6.466914975944183e-25)
(-0.0001390081628786248 -6.114350011577532e-05 -1.045668432089863e-26)
(-0.0001208267868891452 -7.780635812862152e-05 2.939543126424981e-25)
(-9.424691198703822e-05 -8.924917044112176e-05 1.441889423550046e-25)
(-6.611490499646349e-05 -9.098923638631481e-05 -1.414820528635982e-25)
(-3.399074147973538e-05 -8.586462180062689e-05 -2.890759519149837e-25)
(-3.861455271631734e-07 -7.644060521878928e-05 2.557477246610248e-25)
(1.820142067642941e-05 -6.394343346524699e-05 1.584528896617305e-25)
(3.980742147935272e-05 -4.983576890179467e-05 1.074008536806802e-25)
(5.438689652920703e-05 -3.708380330756679e-05 2.00098069253519e-26)
(6.521740769703371e-05 -2.769604643235035e-05 4.086095031559377e-26)
(7.174675374727663e-05 -2.232571107705425e-05 -1.266833271488099e-26)
(7.533649065411575e-05 -2.220686717489099e-05 -4.808926757251945e-26)
(7.360240846808041e-05 -2.557545331164409e-05 1.498458007017147e-26)
(8.448341349353248e-05 -3.170069488906826e-05 -3.723148975349628e-26)
(-7.273164078315217e-07 1.245877944368258e-05 7.950955420897529e-25)
(-4.85258864472426e-06 5.361747186883848e-05 -1.198725439209229e-24)
(-1.567494917357228e-05 9.353894463329239e-05 -2.317620407467872e-25)
(-3.3600293140913e-05 0.0001233293972151065 1.469020456584828e-24)
(-5.642090121318168e-05 0.0001389337619806693 3.189477627281239e-26)
(-8.125489079323677e-05 0.0001386191797972383 1.775734137248779e-24)
(-0.0001051798445213925 0.0001234705803191204 5.372944898526586e-25)
(-0.0001255491840012096 9.692961747007313e-05 4.790911201487252e-25)
(-0.0001403851911528911 6.377252623524138e-05 -3.320197544277625e-25)
(-0.0001489779709255427 2.908723855481269e-05 -2.975425015256637e-25)
(-0.0001509197303393208 -2.214546516641693e-06 -1.750366100169303e-25)
(-0.0001474212224662485 -2.617764968694468e-05 -2.183733446957458e-25)
(-0.0001396199695360517 -4.013222361431234e-05 1.161550990999142e-24)
(-0.0001299452319696836 -4.316834044275579e-05 3.163756668333944e-25)
(-0.000120149503420991 -3.586997207057488e-05 -1.708412884672926e-25)
(-0.0001124974477013336 -2.051848165982446e-05 -2.528727902676474e-25)
(-0.0001088100915223748 -1.514412219619587e-07 -1.379317805047444e-24)
(-0.0001093995378319161 2.112866534690547e-05 -1.622842960590701e-24)
(-0.0001153003150782992 3.994939337022401e-05 1.310463717273209e-25)
(-0.0001241708218905852 5.234126448108565e-05 2.197647073912486e-25)
(-0.0001362799905474601 5.622651046839096e-05 -2.999452728744726e-25)
(-0.0001480038736590698 5.006843635909866e-05 1.326041314146851e-25)
(-0.0001580845373469654 3.42465447884682e-05 -3.763113993193618e-26)
(-0.0001641160329886693 1.069683818977526e-05 -3.035161371831006e-25)
(-0.0001636171199203011 -1.862536861613086e-05 -4.203173259725732e-26)
(-0.0001573553878330628 -4.885215772072959e-05 -2.440748761603968e-25)
(-0.000142264737849859 -7.817341137099436e-05 2.84635562708124e-25)
(-0.0001224239239884872 -0.0001008544615008651 -3.889492176794383e-25)
(-9.537515201450451e-05 -0.0001165209681673498 1.165467631975926e-25)
(-6.656505975808445e-05 -0.0001219806611456674 3.718611999838587e-25)
(-3.573714304076131e-05 -0.0001186399991516746 2.643028424516214e-25)
(-4.786581510539595e-06 -0.0001071196295387509 -2.200204363837945e-25)
(2.138097563170901e-05 -8.782655214357488e-05 -2.945422131854759e-26)
(4.543858676700818e-05 -6.914102528715526e-05 1.871628381932013e-26)
(6.079758396066651e-05 -4.9619217220068e-05 2.712059052510163e-26)
(7.294230248006154e-05 -3.600350694499157e-05 -1.038963060541777e-26)
(7.732348949023733e-05 -2.546417167647555e-05 -8.113449516668004e-26)
(8.206841464839621e-05 -2.224749978356443e-05 1.326677113181182e-26)
(8.240822659082086e-05 -2.531618664579191e-05 -8.980275358631264e-26)
(8.690357808974571e-05 -3.40070223789945e-05 1.502981184975997e-26)
(-7.49457290172684e-07 1.458078216247982e-05 -4.149333486783439e-25)
(-5.040629236389754e-06 6.218991393004891e-05 -1.065342956030911e-24)
(-1.646181411139949e-05 0.0001082828360211584 -5.0220891432979e-25)
(-3.487125707984245e-05 0.0001434662262932137 9.932077885940964e-25)
(-5.791554265745017e-05 0.0001627710744764866 -6.823757825765325e-25)
(-8.33361657852972e-05 0.0001631505195719285 -3.181975367912441e-25)
(-0.0001080120320447887 0.0001457035330955347 -1.732185553357094e-26)
(-0.0001288059675719309 0.0001147022730546462 -1.888965810717996e-25)
(-0.0001438980050572778 7.562562474314174e-05 -2.750702708189693e-25)
(-0.0001524971729952489 3.45468383028988e-05 -7.829065008661927e-25)
(-0.0001543547613698294 -2.754766679919105e-06 6.117123282857194e-25)
(-0.000150652680507303 -3.150229214010563e-05 4.431520014606244e-27)
(-0.000142785260887207 -4.845702182144991e-05 6.788776448412114e-26)
(-0.000133192074015004 -5.236600014511511e-05 -7.200547209980914e-25)
(-0.0001238734267677988 -4.38573943850232e-05 4.024614228066427e-25)
(-0.0001171096136518642 -2.550937681349752e-05 1.678827968090114e-25)
(-0.0001144191532716511 -9.682598912202957e-07 7.697511748564153e-25)
(-0.0001163734159625996 2.499297047032989e-05 1.547181101652552e-24)
(-0.0001232850432317892 4.789733444544839e-05 2.00857783657948e-25)
(-0.0001334863249187326 6.323742814316861e-05 2.026211468118909e-25)
(-0.0001461108077775776 6.813484117738428e-05 6.231149290843116e-26)
(-0.000158107119523822 6.087186215904327e-05 -2.400009487393277e-26)
(-0.0001679161544122923 4.172089939058194e-05 6.521732804624474e-25)
(-0.0001728976202857697 1.283260639295671e-05 6.320840012152834e-26)
(-0.0001714460752510008 -2.290732327700859e-05 8.020621897758021e-27)
(-0.0001632520595832081 -6.034948663688266e-05 2.59614642236419e-25)
(-0.0001471711103065294 -9.607998732073638e-05 -1.035388391686907e-25)
(-0.0001255137843298252 -0.0001247546885661949 -1.189238816231487e-25)
(-9.813234727360324e-05 -0.0001443418560682036 1.868824728662952e-25)
(-6.853753782627224e-05 -0.0001522173594300368 -6.669610692375786e-25)
(-3.786436641822502e-05 -0.0001481532217320386 -1.213159767946111e-26)
(-8.444603219208253e-06 -0.0001344578199406012 -6.499965138461411e-26)
(1.665017838876025e-05 -0.0001120761885423895 -2.224281927135498e-25)
(3.892677380657659e-05 -8.85690697511282e-05 -1.653135982172704e-25)
(5.394216653664476e-05 -6.377318645300446e-05 -9.989140622683558e-26)
(6.561488619601968e-05 -4.457655830953728e-05 -2.923259171342728e-26)
(7.154061346556107e-05 -3.081509685495684e-05 -1.309870786803239e-25)
(7.791404427404699e-05 -2.641096206950267e-05 1.110669450569515e-25)
(8.063522383963422e-05 -2.968890277207547e-05 8.138163533996151e-26)
(8.871541756855588e-05 -4.014385146282704e-05 2.179566594809694e-26)
(-7.701047077866091e-07 1.674062821178035e-05 -6.374114826850987e-25)
(-5.202658632290314e-06 7.126049217884517e-05 6.281082577774099e-25)
(-1.723218789949587e-05 0.0001236856329826887 7.392503050720115e-25)
(-3.62445235373123e-05 0.0001641378776229562 -7.001157165109873e-25)
(-5.947993699370762e-05 0.0001872722277089056 2.501606455521194e-25)
(-8.540078654781134e-05 0.0001886079522863106 5.063972925951693e-25)
(-0.0001110405845168375 0.0001688034869247797 -5.965943590101633e-25)
(-0.0001326320104463357 0.0001329930353195559 -4.855978865974855e-25)
(-0.0001482157586571258 8.761091498583503e-05 -5.833065635410439e-25)
(-0.0001570792974150286 3.974464882504516e-05 4.68927456127358e-25)
(-0.0001590103767278411 -3.850182547390799e-06 1.924458173704709e-25)
(-0.000155216444625877 -3.751985763810013e-05 -4.888520383966381e-25)
(-0.0001472867942580493 -5.742170635847319e-05 -1.713792922373782e-25)
(-0.0001377110003321013 -6.197810366977712e-05 7.86965040014453e-25)
(-0.0001286822365375546 -5.185086983473304e-05 -6.64905740465488e-26)
(-0.0001224356475622908 -3.004113045006607e-05 -2.2355721819494e-25)
(-0.0001205573988883246 -8.784539454737769e-07 1.646994470829407e-25)
(-0.000123536137590436 2.996098935077942e-05 -1.540081922811703e-24)
(-0.0001315506216176912 5.707926258850745e-05 -3.649014895749862e-25)
(-0.0001428569084971006 7.520188461426182e-05 -1.304204645993626e-24)
(-0.000156301380172931 8.082618512944787e-05 -5.899190748334446e-26)
(-0.0001688493965460842 7.199549488157066e-05 -1.173814440663757e-25)
(-0.0001786898021204631 4.893927291708176e-05 -1.88470893939213e-25)
(-0.0001833984097979813 1.436246024598318e-05 2.925853917544405e-26)
(-0.0001811991740664701 -2.834331663539715e-05 5.496916693595949e-25)
(-0.0001720931592726136 -7.303974624273836e-05 -8.965034716530981e-25)
(-0.0001548074004764246 -0.0001156802087475393 5.779499080970864e-25)
(-0.0001320486865626877 -0.0001499353988041322 2.926676909176298e-25)
(-0.0001036112425728905 -0.0001732385794187956 -1.044624114448213e-26)
(-7.323538675356075e-05 -0.0001826752613357892 2.41499556591274e-25)
(-4.239100440223155e-05 -0.0001777913717305925 -1.664457990823773e-25)
(-1.305861354712185e-05 -0.0001616861386785944 -1.087409954704883e-25)
(1.139073197469544e-05 -0.0001351651713708838 5.15821936356923e-25)
(3.320500052055683e-05 -0.0001066647424925643 -1.073728582250129e-25)
(4.76382397824099e-05 -7.658088721089812e-05 1.311394088564226e-25)
(6.014650034347442e-05 -5.349387907345011e-05 9.388168976004935e-28)
(6.700613501800271e-05 -3.724983240877174e-05 1.382281956728317e-25)
(7.56603564075207e-05 -3.218629460785115e-05 -1.899752097692158e-25)
(8.075899925827846e-05 -3.62312935473809e-05 -4.319784934063874e-26)
(9.223104895672107e-05 -4.91245239225166e-05 -5.948355056135178e-26)
(-8.018556801703649e-07 1.89278804552946e-05 9.054650659942692e-25)
(-5.39277815421877e-06 8.08520045070291e-05 2.062300733621374e-24)
(-1.804217190260408e-05 0.0001397296840248191 -9.858395463124739e-25)
(-3.775385279064238e-05 0.000185092401160142 -1.271217079042626e-24)
(-6.111332279878016e-05 0.0002119940973883606 -1.327104336950265e-26)
(-8.72873064279303e-05 0.0002146758455837714 -1.099753363019705e-24)
(-0.0001139848032549853 0.0001927724022419913 1.883528266951229e-25)
(-0.0001367827954916532 0.0001520793742561906 -4.604952060771038e-25)
(-0.0001531740659878395 0.0001001906396166107 5.491540843713799e-25)
(-0.0001625056957297085 4.534303481254595e-05 5.22851063212888e-25)
(-0.0001646455403214265 -4.657262675512326e-06 -6.502095501942278e-25)
(-0.0001608759879390531 -4.326010440091064e-05 7.175777552242052e-25)
(-0.0001529206903367853 -6.603302404452928e-05 -8.400021903137578e-25)
(-0.0001433908392527124 -7.111301402756277e-05 -3.284790701875909e-25)
(-0.0001345648884360916 -5.920818539862789e-05 3.844325861687697e-25)
(-0.0001287420858786117 -3.378084195579217e-05 3.350961230392974e-25)
(-0.0001275324037927634 1.386577537024673e-07 1.269722780276011e-25)
(-0.000131387383880525 3.591238228923246e-05 5.694761996669408e-25)
(-0.000140434309113831 6.723803718429171e-05 3.691012087529611e-25)
(-0.000152775973706032 8.799728842000976e-05 1.254563112090977e-24)
(-0.00016719622046376 9.411192884420486e-05 -6.024975910529368e-25)
(-0.0001804599238785971 8.339383784471562e-05 2.620825078218064e-26)
(-0.0001907489296815804 5.613608982988526e-05 -3.460532232759938e-25)
(-0.0001955319917477001 1.553283771621377e-05 1.141976620998872e-25)
(-0.0001930660911072199 -3.441148525617155e-05 -1.913628068593765e-25)
(-0.0001833672508158901 -8.66290902743169e-05 1.101629252980497e-24)
(-0.0001651638464429524 -0.0001362584301182382 -6.465592698598738e-25)
(-0.0001413905852955424 -0.0001760780827528568 -8.117119077937674e-25)
(-0.0001117593380059552 -0.0002030025764678968 -2.347205729994266e-25)
(-8.045725512541635e-05 -0.0002137431423987506 7.307823770476088e-25)
(-4.881379873863398e-05 -0.000207883268696071 2.082338403338333e-25)
(-1.904385431188457e-05 -0.0001888303320278774 -9.469529903560064e-26)
(5.693491351796935e-06 -0.0001580636561081576 -6.835157205807001e-25)
(2.782993035533176e-05 -0.0001248027763890891 2.081569914654928e-25)
(4.26149724028895e-05 -9.024490368350823e-05 -1.227345621593859e-25)
(5.649978735387508e-05 -6.388283718168167e-05 -1.862723845218724e-25)
(6.484920522537396e-05 -4.574002716145951e-05 1.168462874544023e-25)
(7.590991054326008e-05 -4.04021239874281e-05 -9.512618678965254e-26)
(8.335442221511217e-05 -4.581532180902878e-05 6.930238969722128e-26)
(9.788625293941954e-05 -6.124111505553344e-05 5.69962715234885e-26)
(-8.396361735129336e-07 2.122751741380657e-05 -1.320804751613565e-26)
(-5.61333329557244e-06 9.087682966249374e-05 -9.50315724296723e-25)
(-1.889711799179853e-05 0.000156320889794508 7.287135951952375e-25)
(-3.938897631375015e-05 0.0002063984394241912 1.628485528362467e-24)
(-6.28752466494992e-05 0.0002369830151213273 -4.209399575510719e-25)
(-8.890737483449058e-05 0.000241498829204383 1.993164887995943e-25)
(-0.0001164645585601576 0.0002179703809599272 9.650927170318618e-25)
(-0.0001409754301641421 0.0001723142614272817 5.317068511632987e-25)
(-0.0001588796147331839 0.0001135420662078924 -4.283813911178176e-25)
(-0.0001691211679334729 5.135065446803612e-05 -7.627891280854649e-25)
(-0.0001716076892631493 -5.361989580655177e-06 5.850252633110532e-26)
(-0.0001677873496289856 -4.912375105038196e-05 -2.903271357321957e-25)
(-0.0001596649187608696 -7.484036785396606e-05 1.110821838808335e-24)
(-0.000150071944137312 -8.034524916832603e-05 -8.039023186979681e-25)
(-0.0001413380079143941 -6.646249377392441e-05 6.003880762246549e-25)
(-0.0001358489679547399 -3.717431808176115e-05 -6.130377791602727e-25)
(-0.0001351908940461282 1.77499764843587e-06 -1.909879890691456e-25)
(-0.0001398339940730149 4.274651763767547e-05 -2.792182280169721e-26)