/*--------------------------------*- C++ -*----------------------------------*\
| =========                 |                                                 |
| \\      /  F ield         | OpenFOAM: The Open Source CFD Toolbox           |
|  \\    /   O peration     | Version:  2206                                  |
|   \\  /    A nd           | Website:  www.openfoam.com                      |
|    \\/     M anipulation  |                                                 |
\*---------------------------------------------------------------------------*/
FoamFile
{
    version     2.0;
    format      ascii;
    arch        "LSB;label=32;scalar=64";
    class       surfaceVectorField;
    location    "2";
    object      ddtCorrDdt0(Uf);
}
// * * * * * * * * * * * * * * * * * * * * * * * * * * * * * * * * * * * * * //

dimensions      [0 1 -2 0 0 0 0];

internalField   nonuniform List<vector> 
35915
(
(-3.15435057486401e-06 2.552544714912583e-06 4.63510269301664e-26)
(-1.46615351889026e-06 3.126304696946527e-06 -1.435874918864903e-25)
(-1.332773438649376e-05 3.291224915269009e-06 -5.877361382553715e-26)
(-2.214851181294801e-06 1.014905113765087e-05 -9.239294594975661e-26)
(-2.71497824351346e-05 6.472802108741439e-06 -3.153379946710955e-26)
(-2.048124047665628e-05 1.380249158897377e-05 6.270999340926776e-26)
(-4.479707494593812e-05 8.722614062946833e-06 -3.411301341767861e-26)
(-3.694616711154179e-05 1.763250680775998e-05 -9.510744837833561e-26)
(-6.273268462417313e-05 9.006771277052346e-06 2.451935307801714e-26)
(-5.461003090761299e-05 1.792569933252054e-05 -5.923537840625858e-26)
(-8.246815797895466e-05 7.571117581366221e-06 6.180570055712538e-27)
(-7.365785259454663e-05 1.97303788069854e-05 4.340099582563491e-26)
(-9.497133763090682e-05 5.510661372088349e-06 -4.644309910114196e-26)
(-9.024368496864887e-05 1.250243135451364e-05 3.762456385599209e-26)
(-0.0001024619029804155 3.080157177752296e-06 1.509227985656928e-26)
(-0.0001020496061060277 7.493774690354902e-06 6.691154293360961e-26)
(-0.0001060261931775162 7.406207504267583e-07 -3.576195788658563e-26)
(-0.0001091644749309785 3.570926429415011e-06 -5.26763359825615e-26)
(-0.0001067078652527454 -9.37454872853158e-07 -3.740782911144479e-26)
(-0.0001126431554485003 6.913090715711831e-07 -8.243579569299455e-26)
(-0.0001056669079558153 -1.933648846892066e-06 -2.868858427422128e-26)
(-0.0001135172642854448 -1.028822673209647e-06 -7.305407874837532e-26)
(-0.0001036765177001739 -1.177767615108567e-06 2.4609892262952e-26)
(-0.0001117004194439242 -1.976068150328393e-06 -1.695703348551128e-25)
(-0.0001037660116019201 2.274648903919297e-06 5.728129233048358e-27)
(-0.000109447786370742 1.055185558656245e-07 -1.162040641531861e-25)
(-0.0001072814473764635 6.043591175657352e-06 2.307807133574661e-26)
(-0.0001076919911132339 3.532549739025163e-06 -3.066487626013073e-26)
(-0.000113928065341877 7.678929544038601e-06 7.706329567686827e-26)
(-0.0001097185878376095 6.664166246308129e-06 6.0901822963421e-26)
(-0.0001225715704186662 6.912661193083196e-06 2.675586929525521e-26)
(-0.0001129478840640634 8.661084922697027e-06 -1.391718806857942e-25)
(-0.0001313654245242728 4.506383675175566e-06 -4.43412514517744e-26)
(-0.0001179774410898067 8.810977602018054e-06 3.462489905296357e-27)
(-0.000138664185395407 1.800134145235297e-06 -4.481131463508016e-27)
(-0.0001242489150996535 7.315155075310632e-06 7.758987515367661e-26)
(-0.0001438160022474851 1.434803286016613e-07 -2.230595517154302e-27)
(-0.0001308375569835216 5.167168574473895e-06 -3.391455317500734e-26)
(-0.000147220033127574 -1.962937038074191e-08 -2.479692228186906e-26)
(-0.0001371639271590423 3.418286177168309e-06 2.316309775671978e-26)
(-0.0001494616877299569 7.303178130277443e-07 -1.349679417668459e-26)
(-0.0001424866619252891 2.254694572930189e-06 6.162095436797164e-26)
(-0.0001510412177019981 1.482359207850785e-06 -3.400106903259964e-27)
(-0.0001468004366609677 1.591580203495004e-06 3.091489452515729e-26)
(-0.0001519965417295375 1.343125044442125e-06 2.525256518547007e-26)
(-0.0001487301335361896 9.665090563743492e-07 7.425631508397775e-26)
(-0.0001513418824902001 2.392686073189031e-07 -8.569448348764064e-27)
(-0.0001484784672538091 -6.440389589952755e-07 3.570236457958442e-26)
(-0.0001490566330514553 -1.192837158773192e-06 7.750126123918722e-28)
(-0.0001458859195669156 -2.275000344750722e-06 3.655601670214832e-27)
(-0.0001451617421364836 -2.575076966163639e-06 -8.701778188273878e-27)
(-0.0001411332482088328 -3.884570501498188e-06 2.191991601215099e-26)
(-0.0001398490066197662 -3.849582790813603e-06 -3.887962564820607e-26)
(-0.0001347068455912377 -5.30204916709248e-06 -3.461919609316359e-26)
(-0.0001335322379157461 -4.886416306938099e-06 -5.888467616236001e-27)
(-0.0001279170248695588 -6.305211445234734e-06 -1.499686262291552e-26)
(-0.0001265542391812064 -5.575621819739471e-06 1.2138723667457e-26)
(-0.000121105206690978 -6.965242191426637e-06 -1.307823907267229e-26)
(-0.0001191211307785171 -5.923306140084123e-06 1.873259438908012e-27)
(-0.0001146561448362238 -7.418721690959214e-06 1.39775065267145e-26)
(-0.0001115134649917032 -6.076121383665611e-06 -1.125331064880988e-26)
(-0.0001091220278378809 -7.591447135120846e-06 -1.206415497252114e-26)
(-0.0001034806296599344 -6.164695574638979e-06 -1.951442456809137e-26)
(-0.0001043074947910578 -8.014653433806319e-06 -9.343040819044637e-27)
(-9.498513969043892e-05 -6.243567029487762e-06 -2.492021936043326e-28)
(-9.940039628569725e-05 -8.475470041147524e-06 4.97524027885983e-27)
(-8.589848013728678e-05 -6.384016818691959e-06 6.885252440035564e-27)
(-9.446208381994742e-05 -9.064954569051985e-06 -1.338673784845366e-26)
(-7.622890317705507e-05 -6.705919399290428e-06 1.363960945840431e-27)
(-8.894792542724033e-05 -9.645859098176412e-06 -3.061699428646948e-26)
(-6.589516193714741e-05 -7.31003114477416e-06 3.725659728090115e-27)
(-8.267654511344626e-05 -1.030751421518905e-05 -7.610219284458033e-27)
(-5.50933995930554e-05 -8.121625161020955e-06 4.873200494232364e-27)
(-7.590918044981042e-05 -1.077217872285957e-05 -5.719648668101244e-27)
(-4.399146898319621e-05 -8.971791666827429e-06 5.532037837742652e-27)
(-6.834302095310516e-05 -1.107435686250831e-05 3.912866580348185e-27)
(-3.26903446147359e-05 -9.635739362694012e-06 2.035653427557887e-27)
(-6.031930286004443e-05 -1.127370784721881e-05 4.316313525879228e-27)
(-5.189819824708385e-05 -1.134071267076037e-05 -1.361967820989738e-27)
(-2.134324788093759e-05 -1.001487417232807e-05 7.479848315162116e-24)
(3.55725413557649e-08 1.036608658615529e-05 -2.324313233858139e-25)
(-1.536481967713636e-06 3.059448573970047e-06 -1.443577831137525e-25)
(-1.062394050259278e-05 2.151763898995983e-05 2.22791097818622e-26)
(-9.300853691414663e-07 2.077832213202238e-05 -2.775389112272587e-25)
(-2.886843179949376e-05 2.539723340784322e-05 -1.206942942110944e-26)
(-1.756866231068371e-05 3.20195436898081e-05 3.661717905009917e-27)
(-4.734463801208453e-05 2.563824757429294e-05 -1.210614641229993e-25)
(-3.473732121467895e-05 3.608427265239245e-05 -4.798300896582716e-25)
(-6.52134307603747e-05 2.77217840369447e-05 -4.915137737153225e-26)
(-5.352873837618784e-05 3.577336442663019e-05 -1.336631927760558e-25)
(-8.231295629154173e-05 2.423384110859427e-05 8.448377344395538e-26)
(-7.474078204337193e-05 3.681199842734054e-05 -3.390888603561966e-25)
(-9.715079402959609e-05 1.394277036082063e-05 1.562197293142733e-25)
(-9.256393990132031e-05 2.732590104202417e-05 3.713493835519485e-25)
(-0.0001083655110583784 7.649058429165307e-06 -3.676654325264952e-27)
(-0.0001085739562618573 1.869724787442052e-05 1.06457601402979e-26)
(-0.0001159160969547149 3.611172944036363e-06 -8.941675178358028e-26)
(-0.0001204787218934383 1.111350825392762e-05 1.149932855715477e-25)
(-0.0001198990906972318 1.000808405354909e-06 -1.071014133433183e-25)
(-0.0001260921058894701 4.66891135677991e-06 3.719180961390625e-27)
(-0.0001206741632288667 -4.217975043246203e-07 -2.054856582064463e-25)
(-0.0001275080003357691 -2.56366033358326e-07 -5.065535016062949e-26)
(-0.0001167585881364647 -3.780710712621035e-07 -3.130606042265711e-25)
(-0.0001253620485549118 -5.892335548627005e-06 1.258906673916992e-25)
(-0.0001141193290086714 1.292655150978023e-06 -1.577715485846061e-25)
(-0.0001203704037218859 -2.532172495999701e-06 1.782509131876872e-25)
(-0.000110817059925451 4.235282406342753e-06 1.443651753149821e-26)
(-0.0001157357392723219 2.334160112129173e-07 2.977880991814846e-25)
(-0.0001081634727242713 7.616267517954784e-06 -1.357420505401769e-25)
(-0.0001113072598018434 4.015658408081578e-06 -1.056195802940385e-26)
(-0.0001080778520939685 1.020846316703861e-05 -1.550977942780505e-25)
(-0.0001083345137152263 8.581840427587588e-06 -1.019541350514767e-25)
(-0.0001110766079604217 1.113469270091858e-05 1.111359872032981e-25)
(-0.0001079919578021778 1.181776280539527e-05 1.560791238064243e-25)
(-0.0001168671411656763 1.044590257321364e-05 4.641715108569879e-26)
(-0.0001107259332553672 1.31147346655942e-05 5.177512408757293e-26)
(-0.0001247122392515436 8.699701956971608e-06 -8.030940691578168e-27)
(-0.000116267377749017 1.30228029071652e-05 -1.378604813807419e-25)
(-0.0001329698846315316 6.361058742435287e-06 1.021660986706283e-25)
(-0.000123800669686087 1.168744342058671e-05 -7.953044044241994e-26)
(-0.0001400768925373367 3.752629453942944e-06 1.039442473737562e-25)
(-0.0001317106381853638 9.3747902536049e-06 3.985049562131879e-27)
(-0.0001445205923502104 1.130264914040808e-06 1.071755278432696e-25)
(-0.0001388341821755787 6.049497437726263e-06 9.919949759057038e-27)
(-0.0001458450413627118 -1.502315584388693e-06 8.80789721976109e-26)
(-0.0001429787301400888 2.306976035861835e-06 7.861307937939076e-28)
(-0.0001436334924167456 -3.766972684718042e-06 4.758174240037533e-26)
(-0.0001439901425370542 -2.838000667889176e-06 6.159809258998818e-26)
(-0.0001385429059908192 -5.34238153339664e-06 2.414524105073742e-26)
(-0.0001414127003078655 -7.345547371567031e-06 7.044833979379233e-26)
(-0.0001314060132494088 -6.427180265542043e-06 -2.932824966259403e-27)
(-0.0001353228122890933 -1.099894230363589e-05 1.23985336721226e-26)
(-0.0001234806233876178 -7.079855698679852e-06 -8.925231074388888e-27)
(-0.000126255965322632 -1.320152655561281e-05 -1.330643446626854e-26)
(-0.0001160122432224915 -7.508326122291328e-06 -2.199802819956252e-26)
(-0.000115738990082294 -1.374407930810288e-05 2.422216870053322e-26)
(-0.0001097093073772963 -7.902559468083663e-06 -1.243269395224159e-26)
(-0.0001046563839721859 -1.323429241675477e-05 -4.923503977086787e-26)
(-0.0001048222268133799 -8.363151497025427e-06 -1.625108467148058e-28)
(-9.414299006620101e-05 -1.226726249150043e-05 2.006225480448618e-27)
(-0.0001022270067980321 -9.095181181394161e-06 -8.772431523851887e-27)
(-8.410838311554678e-05 -1.0143047382326e-05 -3.714043868965609e-26)
(-0.0001004423793192859 -1.012298333383965e-05 1.756965214435416e-26)
(-7.749372213420315e-05 -9.750467476131789e-06 6.674752032720049e-26)
(-9.910343503159829e-05 -1.132783282314017e-05 -8.117527916768248e-27)
(-7.134678083297143e-05 -9.760757599569845e-06 -1.022227196757844e-27)
(-9.760185214959979e-05 -1.259457744411385e-05 -5.173232193978369e-26)
(-6.849140143539825e-05 -1.050783411872297e-05 -3.35587551493044e-26)
(-9.567022458070753e-05 -1.368539877667927e-05 -3.973879040060199e-26)
(-6.63994541111793e-05 -1.151413114864675e-05 3.490127950602711e-27)
(-9.295269186237784e-05 -1.422841785729026e-05 -1.748903105389492e-26)
(-6.509966220822488e-05 -1.295580753485353e-05 -9.540071245993902e-27)
(-8.936233377672993e-05 -1.411340715759045e-05 -7.226554125801523e-27)
(-6.419214042736514e-05 -1.428782826634355e-05 2.883101038574406e-27)
(-8.479649611473567e-05 -1.359698410297935e-05 2.083808401501539e-27)
(-6.201665362478176e-05 -1.556350458324347e-05 -1.68737257197066e-28)
(-7.952249309832194e-05 -1.292543507385681e-05 7.229038134306611e-28)
(-5.969156150217265e-05 -1.647444082220818e-05 6.922316059707775e-27)
(-5.476651527666207e-05 -1.640795169979354e-05 3.000262901720632e-27)
(-7.440341963588455e-05 -1.222552505628363e-05 -6.011718963855755e-24)
(-2.491529788184955e-06 1.381741737684875e-05 -8.010293652491997e-26)
(-9.608249313565093e-07 5.521901966955392e-06 4.05457735906941e-26)
(-8.803646231901589e-06 3.06477093286756e-05 -2.650480172926082e-25)
(-4.130769373307679e-06 2.70589349364591e-05 2.60734053147971e-25)
(-2.188919163895299e-05 4.232205079157324e-05 -4.707172315056693e-25)
(-1.311050244229806e-05 4.507336806502111e-05 -4.128947330478262e-25)
(-4.118028858131082e-05 4.724741491270179e-05 -4.912877283338504e-25)
(-3.054820925729363e-05 5.534476121950607e-05 2.047045388606234e-25)
(-6.426263719185524e-05 4.625593983231321e-05 -4.227990256562261e-25)
(-5.161624148881346e-05 5.88265110775633e-05 2.868540959294031e-25)
(-8.411616867701027e-05 4.063600876360445e-05 -3.949071168649327e-26)
(-7.486539401213765e-05 5.663804264245732e-05 2.36199786939099e-25)
(-0.0001041760178874857 3.210273620664568e-05 2.485376303355774e-25)
(-9.58974422030116e-05 4.736000630225615e-05 -2.68601735232154e-25)
(-0.0001205822865446776 2.192695505384307e-05 1.317696740192726e-25)
(-0.0001157490636213896 3.507968020238808e-05 -9.817314485827081e-26)
(-0.0001307393819331121 1.161643221361397e-05 1.766814659001178e-25)
(-0.0001302001398740247 2.124864070187081e-05 1.496529789724767e-25)
(-0.0001341369578625834 2.861220843680689e-06 2.22482113537418e-26)
(-0.0001388800266121799 8.046401270646533e-06 1.961616567684691e-25)
(-0.0001330065454681635 -6.110916842881064e-06 2.186871905195777e-25)
(-0.0001394332275389999 -1.405190376763709e-06 2.396432931887752e-25)
(-0.0001284876893047476 -7.991473038636685e-06 5.519566064675935e-25)
(-0.0001377012695117872 -1.042796436541933e-05 2.730216423586249e-25)
(-0.0001225124041334559 -3.275192787571074e-06 6.127950676193141e-25)
(-0.0001305590769760207 -8.522775571452994e-06 6.49803990455437e-26)
(-0.0001164794817401094 -4.940219932854983e-08 2.618665817015462e-25)
(-0.0001230169101813046 -5.813289345816916e-06 2.376416563153881e-25)
(-0.0001113140003971501 4.821952256680194e-06 4.838323347629519e-26)
(-0.0001135092969840766 -1.162246530086779e-06 -5.592191450000078e-26)
(-0.000108085450193554 1.038764775741857e-05 2.445882623523084e-25)
(-0.000107619708345826 5.342332337223154e-06 -1.05673241108081e-25)
(-0.0001079816557377705 1.425185045830057e-05 6.837877532135469e-26)
(-0.000103428965604486 1.1704323629802e-05 1.919590760013613e-26)
(-0.000110179644799259 1.592119358820118e-05 -1.495345340637433e-25)
(-0.0001034566165411859 1.530443834781198e-05 -6.994709329057712e-27)
(-0.0001156876930547277 1.572621889498443e-05 -2.049218412321618e-25)
(-0.0001078885078685147 1.852382413661889e-05 5.635876000324749e-26)
(-0.0001229324675708123 1.406749939374963e-05 -2.101952901055803e-25)
(-0.0001154203112583672 1.892663612580199e-05 2.330678501512231e-25)
(-0.0001305816022200461 1.106761077004622e-05 -1.26264557711814e-25)
(-0.0001242963839750542 1.701972498404293e-05 3.623121663905574e-26)
(-0.0001373206239129843 7.00996124053225e-06 -1.330646501902356e-25)
(-0.00013270873590183 1.27860018166884e-05 -9.407826216834782e-26)
(-0.00014149174640312 1.10682596462777e-06 -6.330885320441851e-26)
(-0.0001393166670118533 6.477263207537429e-06 -1.905351111894311e-25)
(-0.0001422114768452887 -6.134975994433006e-06 7.249130496631833e-26)
(-0.0001428233969325058 -2.117029438772719e-06 4.583018883187541e-26)
(-0.0001385972215281103 -1.27084325293825e-05 5.306082686543055e-26)
(-0.0001422793039972543 -1.095634061293227e-05 -7.920026400365203e-26)
(-0.000130623183699984 -1.762915327688598e-05 2.835466576608075e-27)
(-0.0001368840529141973 -1.896678339514895e-05 -3.308176532117739e-26)
(-0.0001189809172083057 -2.012744241641671e-05 2.716305857281173e-26)
(-0.0001268309833827761 -2.483450104401614e-05 -1.246537393960546e-25)
(-0.0001048397341239599 -2.032676909493118e-05 -4.897322198218137e-28)
(-0.0001129122145850893 -2.787226170433338e-05 -5.43597526452997e-26)
(-8.942338043911936e-05 -1.90298710062159e-05 -3.415687226097818e-26)
(-9.617153807204194e-05 -2.863344261991016e-05 1.357707264161962e-26)
(-7.361689876276326e-05 -1.540223353124657e-05 -3.553657236634817e-26)
(-7.78473311236961e-05 -2.805175146184926e-05 -2.475553886422656e-26)
(-5.961736680393344e-05 -1.151948341488961e-05 3.755222192884731e-26)
(-5.812020533334608e-05 -2.411527036613871e-05 -1.361667692283309e-26)
(-4.846157192227477e-05 -9.567803522822496e-06 4.825711281973044e-26)
(-4.115116426320217e-05 -2.08734379421072e-05 6.355405324659252e-26)
(-4.099322693511711e-05 -8.586282392659196e-06 -2.758169102097469e-26)
(-2.574765017970623e-05 -1.71906134263213e-05 1.632633999440101e-26)
(-3.719778343838897e-05 -8.653173175721474e-06 1.59637802362315e-26)
(-1.54266556597179e-05 -1.425933805556453e-05 2.587514966897289e-26)
(-3.604125238836568e-05 -9.978875041446986e-06 2.863815795394839e-26)
(-8.744468693694803e-06 -1.26208716388217e-05 2.766028849659355e-26)
(-3.630495755007896e-05 -1.257911278378508e-05 8.873187453540278e-27)
(-5.816603494889888e-06 -1.263590857706907e-05 7.55494288237038e-27)
(-3.717843479340265e-05 -1.575039712899038e-05 9.583657786604275e-27)
(-5.542803338433585e-06 -1.335116091153814e-05 1.459141595056638e-26)
(-3.697938022980629e-05 -1.881361938640956e-05 5.893965639679059e-27)
(-5.534485682369852e-06 -1.569747414335116e-05 -9.614261725843615e-27)
(-3.491419771069878e-05 -2.070768539346907e-05 9.640372548435569e-27)
(-6.558008815230861e-06 -1.84719429449411e-05 -7.52640063640382e-28)
(-3.178123735177644e-06 -2.06481182863128e-05 7.461643588383922e-27)
(-3.063144776813551e-05 -2.131096167271039e-05 1.760199623999741e-22)
(-1.744763115875995e-06 1.833501118257728e-05 2.956860521790948e-25)
(-7.577017776863529e-07 7.233969151210777e-06 1.190355637239499e-25)
(-8.763026377156595e-06 4.09591169903607e-05 1.281454539986166e-26)
(-4.328532978746196e-06 3.404514479231491e-05 3.23130634470504e-25)
(-2.194899180661956e-05 5.783740737770429e-05 1.431365668949032e-25)
(-1.368370970720399e-05 5.822760899301478e-05 1.160712129118812e-25)
(-4.082773896730713e-05 6.670850899764468e-05 8.537253367791493e-25)
(-3.09093596576382e-05 7.419234951401213e-05 1.975227166591607e-25)
(-6.303022990603681e-05 6.847376334345044e-05 8.837060976640527e-25)
(-5.277326388929661e-05 8.099881680346438e-05 3.303844781198728e-26)
(-8.581329889727938e-05 6.296790400991304e-05 -4.151545298367494e-27)
(-7.5834498247431e-05 7.939190444730751e-05 5.923607847881609e-25)
(-0.0001076467022876965 5.096872327941518e-05 -5.975453861555337e-25)
(-9.88870902827991e-05 6.916547284604477e-05 -4.02557656519093e-25)
(-0.0001255141838568362 3.552743255477471e-05 -8.051153792927592e-26)
(-0.0001194488344982684 5.292036379027318e-05 -1.636264527973076e-25)
(-0.0001383144152063796 1.885116723065885e-05 1.695170346125937e-25)
(-0.0001338645446509735 3.402328548594657e-05 1.114813586344454e-26)
(-0.0001445644310721299 4.224197649709932e-06 4.194647208434891e-25)
(-0.0001447539770090842 1.427190810889141e-05 -7.661882183339227e-26)
(-0.0001440698432152815 -6.246419357627915e-06 2.923558711671071e-25)
(-0.000146278092877625 -1.923190537522997e-06 -3.75567420677215e-26)
(-0.0001406024097177916 -1.170923472064181e-05 -2.401214924153664e-25)
(-0.0001451061351675919 -1.391781333029929e-05 -2.076524667132152e-25)
(-0.0001309954417615985 -1.156381102288379e-05 -3.512610086472691e-25)
(-0.0001375588724838495 -1.81512698325525e-05 -6.067096298853914e-26)
(-0.0001198725120709647 -7.317529514782391e-06 -1.026106855764508e-25)
(-0.000127824889561391 -1.695685734771514e-05 5.020722797977481e-26)
(-0.0001101564563097672 -7.693636453066943e-07 -2.125183901517449e-25)
(-0.0001153308989782611 -1.089798202454269e-05 3.49229223356891e-26)
(-0.0001028807031233087 6.698752704277905e-06 -3.128252801335989e-25)
(-0.0001067240927209762 -1.952290415420952e-06 2.067871819839893e-25)
(-9.944053788732195e-05 1.293806800001497e-05 -3.763789808343715e-26)
(-0.0001001471801363044 8.246221783587101e-06 -1.724829696565626e-25)
(-0.0001009593830763382 1.831690071742382e-05 1.819981341665462e-25)
(-9.868564246713539e-05 1.680636345140817e-05 -1.832049022380439e-25)
(-0.0001077691873588311 2.222630636110064e-05 4.596856467212577e-25)
(-0.0001029913664056526 2.53178299958111e-05 -9.973016035350773e-27)
(-0.0001170158650528524 2.228209786255997e-05 4.581047512016778e-25)
(-0.0001114071249644137 2.815847791102437e-05 3.08782918873034e-25)
(-0.0001264930335435729 1.888303922591114e-05 6.381029223841309e-26)
(-0.0001214883485533261 2.648305681129028e-05 4.263888560523408e-27)
(-0.0001352030880903241 1.235792118924502e-05 -1.549793279252613e-25)
(-0.0001327570467340921 2.148317130054992e-05 3.336612061771657e-26)
(-0.0001407578189452951 3.405035567182837e-06 -7.756641104758761e-26)
(-0.0001414149120032237 1.202013782682896e-05 3.251256269285072e-26)
(-0.0001433097602124912 -6.839359812692718e-06 -9.918491362213028e-26)
(-0.0001473200409355492 4.241837784820218e-07 -2.278160707545543e-26)
(-0.0001409891318701666 -1.71380534182045e-05 -1.632930353950977e-25)
(-0.0001482370048670028 -1.328643082639556e-05 -1.4448440209398e-25)
(-0.000133264032033729 -2.605171612483217e-05 -1.592451394040361e-25)
(-0.0001426241483085964 -2.669988805540496e-05 -2.214319911486903e-25)
(-0.0001210680019261484 -3.213070859554687e-05 -2.055818853069971e-25)
(-0.0001333127502701583 -3.703672121835596e-05 -2.14318039238137e-27)
(-0.0001048359893783866 -3.546314461131944e-05 -3.742467343169577e-26)
(-0.0001139069094434801 -4.410836568624725e-05 -3.235669670216091e-26)
(-8.491110126305721e-05 -3.677200988976269e-05 2.624106890017883e-26)
(-9.243920227675614e-05 -4.855994046466362e-05 -6.239822267360094e-26)
(-6.255579244865407e-05 -3.589618561488572e-05 4.957109078713844e-28)
(-6.867683746478317e-05 -5.040578486837602e-05 2.098531649717375e-26)
(-3.984593761789563e-05 -3.306182899454829e-05 1.064256601449355e-26)
(-4.430325591861051e-05 -4.682054989365078e-05 5.868536305961182e-26)
(-1.842960747019586e-05 -2.866520300860533e-05 2.71339829614607e-26)
(-2.11656743789823e-05 -4.228164361304561e-05 -5.21016980034075e-26)
(-3.780774623360133e-07 -2.350914209837254e-05 7.351935306225804e-26)
(-6.489694685356093e-07 -3.52304430483772e-05 -3.5566983687299e-26)
(1.31695624140158e-05 -1.912832932492101e-05 4.055761466241766e-26)
(1.571982988755565e-05 -2.779157965052292e-05 4.102505518710728e-26)
(2.110136532961022e-05 -1.604345631875857e-05 7.511988217077412e-27)
(2.732593215839737e-05 -2.053324301189818e-05 -1.867943994273266e-27)
(2.522984725386017e-05 -1.382285306358606e-05 1.373455493656169e-26)
(3.42617435047868e-05 -1.674009068600733e-05 -9.97248379950382e-27)
(2.552473555952767e-05 -1.328807246981674e-05 -5.279195531755039e-27)
(3.782822439342745e-05 -1.361600772064321e-05 1.180376158059003e-26)
(2.510150338746136e-05 -1.497424202258079e-05 -1.776743479054127e-26)
(3.985729993244029e-05 -1.52423469089398e-05 2.031219967245371e-26)
(2.519892129046272e-05 -1.789028341156501e-05 -4.656475665869845e-27)
(4.107584352847687e-05 -1.854019496030813e-05 9.840411209845843e-27)
(4.55221483861861e-05 -2.235098969610131e-05 2.816772690166467e-28)
(2.691641242412446e-05 -2.044836341903217e-05 -1.138517433708222e-22)
(-2.010680295019934e-06 2.329781741971099e-05 1.389391690646102e-25)
(-7.663503640748639e-07 9.21667218887237e-06 -2.386816538596425e-25)
(-9.543270441907799e-06 5.168968048588448e-05 4.696998176417363e-25)
(-4.667915332147792e-06 4.154729358462295e-05 4.731881637352498e-25)
(-2.335911458246967e-05 7.468514322307479e-05 2.288883691731435e-25)
(-1.472374419290775e-05 7.201266244626366e-05 5.14373760945164e-25)
(-4.274472914166152e-05 8.841078638487218e-05 -6.491632899774923e-25)
(-3.217340921173579e-05 9.354762025764083e-05 -8.375214746450225e-25)
(-6.56020927233741e-05 9.206195265499101e-05 -3.070980838071315e-25)
(-5.451457266794232e-05 0.0001038266404003341 -1.32428769434256e-25)
(-8.893167835588628e-05 8.576143477873616e-05 1.860559547907062e-25)
(-7.832815873507464e-05 0.0001026929037880463 -8.765911824648238e-25)
(-0.0001105135797989702 7.099692794626775e-05 5.118699957270072e-26)
(-0.0001015370656878161 9.071978791868112e-05 1.656022706550301e-25)
(-0.0001281122726401749 5.101492587838004e-05 -7.502771374977899e-26)
(-0.0001218248127763883 7.049251777333927e-05 7.757881582655543e-26)
(-0.00014020212114277 2.893337924270342e-05 -2.46099127315633e-25)
(-0.0001364037989986277 4.608754018989919e-05 2.368001103236242e-25)
(-0.0001466873282180244 7.99072302006446e-06 -5.441263403518963e-25)
(-0.0001459730260717839 2.073244037165769e-05 1.940711840471005e-25)
(-0.0001471435707733642 -8.95533601387728e-06 -5.440794804730503e-25)
(-0.0001484649293350453 -1.490866365005072e-06 -2.646791026287425e-25)
(-0.0001430212094642023 -1.974374333711275e-05 -3.018400958073152e-26)
(-0.0001462077491298831 -1.806333179408134e-05 7.598461339531709e-26)
(-0.000134227631580676 -2.336950250235037e-05 3.421949596939176e-25)
(-0.0001389774268337489 -2.696740926199337e-05 -3.630400597209478e-25)
(-0.0001231807665629593 -2.02374049104655e-05 1.899733969397583e-25)
(-0.0001290415757819909 -2.802562915756124e-05 -9.40399129283414e-26)
(-0.0001123513344846144 -1.18460890734835e-05 4.599121444605246e-25)
(-0.0001179270383145058 -2.174870514854907e-05 -1.741741450412519e-25)
(-0.0001039657127499954 -4.180141962496857e-07 3.506745817610825e-25)
(-0.00010863516144526 -1.035847551077713e-05 3.010555632331841e-25)
(-9.966400993136033e-05 1.172483347211108e-05 -3.217472733837264e-25)
(-0.0001026693038923436 3.924631305899903e-06 2.086735489121184e-25)
(-0.0001008677576614743 2.337202237671192e-05 -3.773399741333044e-25)
(-0.0001014890148480308 1.799094323172463e-05 3.429510243636798e-25)
(-0.0001065857287838321 3.117003238301043e-05 -1.714021022976468e-25)
(-0.0001052024855559596 3.101732103089655e-05 1.451623098583854e-25)
(-0.0001161021966299243 3.259807528460621e-05 -1.607387964539519e-25)
(-0.0001132665639941629 3.765719343410195e-05 -2.479789629119466e-25)
(-0.0001278384484001623 2.959734660602024e-05 -2.67727046014401e-26)
(-0.0001239583960983917 3.820221155257838e-05 9.630004222167408e-26)
(-0.0001394792806949922 2.149143546444079e-05 2.35730835994212e-25)
(-0.0001369436736900366 3.310753227490114e-05 6.736557131930309e-26)
(-0.0001481423427565939 9.157886179922369e-06 8.932052719210366e-26)
(-0.0001470706726887268 2.066726051858498e-05 -4.001406362261174e-26)
(-0.000152577420841062 -5.963576876811691e-06 -7.067978291846902e-26)
(-0.000154714384942579 4.843875246995369e-06 -3.602444248613988e-26)
(-0.0001505432793133852 -2.280012875139483e-05 -1.969808328814464e-25)
(-0.0001557315149474139 -1.533545173460082e-05 -7.56707646323961e-27)
(-0.0001424897599422242 -3.802499207872138e-05 -6.096895057556527e-26)
(-0.0001503128300226914 -3.47676707698571e-05 1.369810429396006e-25)
(-0.0001260501010082373 -5.018915132168864e-05 1.758939334416246e-25)
(-0.0001391603180722163 -5.348998851699619e-05 1.210178104007087e-25)
(-0.0001028402402064858 -5.808292079241046e-05 -5.550414121484334e-26)
(-0.00011799885950029 -6.733085943807306e-05 1.969828721382898e-25)
(-7.649515041406375e-05 -6.215743213189206e-05 -6.759476544966696e-26)
(-9.23897742203943e-05 -7.491634809391926e-05 -3.012355919464282e-26)
(-5.035275389737677e-05 -6.098616687326299e-05 7.945340603059999e-26)
(-6.52505960138492e-05 -7.655785195734441e-05 -3.385922970260218e-26)
(-2.59628166931945e-05 -5.573743778251285e-05 -4.14640969963694e-27)
(-3.635004789956515e-05 -7.121824692016588e-05 -1.029949974456671e-25)
(-3.493580528462025e-06 -4.863081871276078e-05 -1.150014647883509e-25)
(-7.707895252616217e-06 -6.475673478743786e-05 8.177911549017137e-26)
(1.565742370507906e-05 -3.931682819735512e-05 -6.792906928883628e-26)
(1.200260291980769e-05 -5.438548245716426e-05 9.297378145070439e-27)
(3.000881181249977e-05 -2.917921724225983e-05 -1.336986641489814e-27)
(3.11035360550027e-05 -4.214520139840224e-05 5.511845191692083e-26)
(4.004276946596629e-05 -2.1478310850197e-05 -1.93817454606913e-26)
(4.453731378045161e-05 -3.056734094707779e-05 7.567835419715228e-27)
(4.678191893773007e-05 -1.6776899718035e-05 -1.179030061215329e-26)
(5.394000110768961e-05 -2.347631763960232e-05 2.812972301708658e-27)
(5.172353160475687e-05 -1.588301879016689e-05 3.75063183590495e-26)
(5.987336330448951e-05 -1.855104851364939e-05 -7.692479932591488e-28)
(5.639786811550875e-05 -1.920498526800082e-05 4.791172653650507e-26)
(6.367526619619583e-05 -1.991087700352148e-05 8.345890131118781e-27)
(6.076936860952624e-05 -2.328117333449022e-05 1.492954625047956e-26)
(6.486318283651513e-05 -2.290456482879875e-05 2.305089033470463e-26)
(7.347211648569456e-05 -2.863333737470924e-05 -1.933100062727119e-26)
(6.704086593437192e-05 -2.835530434344203e-05 -1.271740509529808e-22)
(-2.145805972843691e-06 2.780749926454335e-05 9.732442961192991e-26)
(-7.644113509247026e-07 1.132944316697995e-05 -1.07400706167024e-26)
(-1.007549476686048e-05 6.202080509553812e-05 5.305907369820145e-25)
(-4.873296017521204e-06 4.94456599216028e-05 -8.393519761585723e-26)
(-2.428202752303733e-05 9.090275083329252e-05 -5.669946861645911e-25)
(-1.548281078993496e-05 8.618865016723722e-05 -7.766271883475164e-26)
(-4.39815846787229e-05 0.0001090473216141785 -3.630880091583424e-25)
(-3.324891018217356e-05 0.0001132173671891279 1.079270876191703e-25)
(-6.722213776301438e-05 0.0001145940944610126 -6.917192285683982e-25)
(-5.591600772583339e-05 0.0001270382721971577 2.554434662241361e-25)
(-9.096413250001348e-05 0.000107726933288085 -8.764651767319542e-25)
(-8.045806974685451e-05 0.0001264069695168896 -6.353181703755917e-26)
(-0.0001126719896041198 9.028218435706274e-05 1.771031520049924e-25)
(-0.0001040789746359831 0.0001124007349590856 3.206738458910537e-25)
(-0.0001302783481878058 6.569542118924597e-05 3.873049156882433e-25)
(-0.0001244143093077827 8.807298431194825e-05 3.642241367009646e-25)
(-0.0001421367248440421 3.806603358198657e-05 6.767332931319034e-25)
(-0.0001392290346885338 5.792096800583374e-05 1.088140492461813e-25)