/*--------------------------------*- C++ -*----------------------------------*\
| =========                 |                                                 |
| \\      /  F ield         | OpenFOAM: The Open Source CFD Toolbox           |
|  \\    /   O peration     | Version:  2206                                  |
|   \\  /    A nd           | Website:  www.openfoam.com                      |
|    \\/     M anipulation  |                                                 |
\*---------------------------------------------------------------------------*/
FoamFile
{
    version     2.0;
    format      ascii;
    arch        "LSB;label=32;scalar=64";
    class       volVectorField;
    location    "2";
    object      ddtCorrDdt0(U);
}
// * * * * * * * * * * * * * * * * * * * * * * * * * * * * * * * * * * * * * //

dimensions      [0 1 -2 0 0 0 0];

internalField   nonuniform List<vector> 
18114
(
(-1.026557125620739e-06 3.561593898602743e-06 7.55230578649636e-26)
(-6.707239203189445e-06 1.54363730107069e-06 1.717897580420714e-26)
(-1.898746954740218e-05 5.038843095780289e-06 -1.347262551252904e-25)
(-3.535514387464244e-05 7.906774657423957e-06 7.165872560105144e-26)
(-5.373330125896412e-05 9.538462474303708e-06 -1.398848226392619e-25)
(-7.321140229198696e-05 8.47508280586338e-06 1.889236365533269e-25)
(-8.984743615402428e-05 6.667149592607165e-06 -1.765626147570419e-25)
(-0.0001003407215737926 4.35416683893389e-06 8.367649976314804e-26)
(-0.0001052402132262422 1.806139006163393e-06 -5.349198338665997e-26)
(-0.0001066719278663893 -3.249070378172808e-07 -1.803192134901385e-26)
(-0.0001061844304448306 -1.550012305036756e-06 -5.678374882221787e-26)
(-0.0001041608900756189 -2.317294045745224e-06 -5.934026017221859e-28)
(-0.0001034360356619124 -3.825346689283603e-08 4.981320227153111e-26)
(-0.0001034805608733258 4.587534072080308e-06 -3.83569699181123e-26)
(-0.0001103142231532236 7.499632250488238e-06 8.451314840089703e-26)
(-0.000118235722424477 7.858212079030117e-06 6.961343868715361e-26)
(-0.0001271659365698298 5.967096529954574e-06 -1.610172426399322e-26)
(-0.0001353441807144757 3.045658081897729e-06 -7.258079427481706e-26)
(-0.000141439076593246 5.54598465123416e-07 6.36185683103672e-26)
(-0.0001455940580655173 -2.676481133331036e-07 -6.807979431966285e-26)
(-0.0001482625911698831 2.283802394800192e-07 1.848597222094494e-26)
(-0.0001502378436018198 1.232247217787561e-06 -4.547957674943518e-26)
(-0.0001515860315613922 1.732463719694399e-06 3.867938359827031e-26)
(-0.0001516711047529534 9.537792652605979e-07 1.18257403898039e-26)
(-0.0001502761564644288 -4.752486692002645e-07 -2.896464645928999e-26)
(-0.0001471094434602307 -1.910431688916155e-06 3.051468483747796e-26)
(-0.000142328764120908 -3.239727597248319e-06 -4.791825782455745e-26)
(-0.000136580486326341 -4.45944274353772e-06 -2.984098984590555e-26)
(-0.0001298951134066786 -5.31339397401671e-06 1.806406377683799e-26)
(-0.0001227024639536395 -5.837853071256911e-06 6.21338144454825e-27)
(-0.0001152583769360955 -6.008761777444191e-06 -2.466864050287361e-27)
(-0.0001074442095224995 -6.143482769021082e-06 -2.003975995565125e-26)
(-9.923344506552526e-05 -6.185909239533249e-06 -1.898908904128615e-26)
(-9.047137865443921e-05 -6.301224990456409e-06 1.849068949719994e-26)
(-8.107756346741193e-05 -6.466808020104551e-06 -4.720187292296366e-27)
(-7.105257599513613e-05 -6.945029708922823e-06 7.44811039938112e-27)
(-6.044420265514298e-05 -7.675030754228256e-06 3.208428300898165e-30)
(-4.953960828762535e-05 -8.568217739745312e-06 9.743193229336202e-27)
(-3.835255420971567e-05 -9.375361066381948e-06 1.32088199954334e-27)
(-2.699735521328594e-05 -9.896113007239861e-06 2.750424903858282e-27)
(-1.905307749724144e-06 1.996780561901925e-06 -2.761605876795194e-25)
(2.277752166268284e-06 1.873555250287172e-05 -1.887020294846954e-25)
(-2.197507871223659e-05 2.429978126866073e-05 2.332603908371864e-25)
(-3.853742790077912e-05 2.649470854245956e-05 -2.573994121983353e-25)
(-5.548718381949315e-05 2.478180633311103e-05 1.527657306688735e-26)
(-7.410497249808776e-05 3.066177949764025e-05 -1.135793692442112e-25)
(-9.064089702980864e-05 1.780590982510189e-05 2.825470422830779e-25)
(-0.0001037597838790374 1.007963386653957e-05 2.989233678236379e-26)
(-0.00011309038775824 5.21848342150235e-06 -3.724566625425562e-26)
(-0.0001186164312048586 2.003861633618928e-06 -1.415878691830693e-25)
(-0.0001208525798216912 -2.246277474422311e-09 -7.261493663058724e-26)
(-0.0001192429008878304 -8.413505184099989e-07 -3.383564591343766e-25)
(-0.0001154629721428193 8.520695074642032e-08 -2.877647344911682e-25)
(-0.0001119073787421465 2.500101493322759e-06 -2.777828717708488e-26)
(-0.0001091274576062174 5.970459731887051e-06 5.665134617013303e-26)
(-0.0001076651239735395 9.262069748584123e-06 -3.281355551205581e-25)
(-0.0001087946197265785 1.115484916341632e-05 1.794006183750004e-26)
(-0.0001131599286486923 1.11145271254991e-05 2.04331962946889e-25)
(-0.0001202429161096291 9.777267832413555e-06 -1.114977443970506e-25)
(-0.000128741272621894 7.62212475088023e-06 9.543591652996671e-26)
(-0.0001367188055537091 5.099980289057026e-06 1.088962842791127e-25)
(-0.0001433716798045208 2.40526564770763e-06 9.899220800161846e-26)
(-0.0001458834488042936 -1.447491985484585e-07 1.153588515855022e-25)
(-0.0001452955999740483 -2.859896029829575e-06 6.079908018710921e-26)
(-0.0001415059953512771 -4.674063958280595e-06 3.436439876617925e-26)
(-0.0001351678697885351 -6.010714126832867e-06 1.392607890689473e-26)
(-0.0001270962632259869 -6.843661794466466e-06 -1.979173570966988e-26)
(-0.0001192653956225477 -7.316065171702939e-06 1.941277846111825e-27)
(-0.0001123275915082489 -7.700602933704754e-06 -4.593734311617392e-26)
(-0.0001066225831465038 -8.10453172790893e-06 2.107196682271167e-26)
(-0.000102998849163594 -8.621786907808782e-06 -2.139699537783771e-26)
(-0.0001011843676420695 -9.568590386615561e-06 3.852136095340335e-27)
(-9.958129623994014e-05 -1.067739062380289e-05 3.128717196075827e-26)
(-9.846707752771647e-05 -1.197828813287274e-05 -4.752223760035581e-26)
(-9.683286364512218e-05 -1.321087910203155e-05 -5.594240718960343e-26)
(-9.431533828697852e-05 -1.41599292748857e-05 -2.353517049051265e-26)
(-9.138916542105475e-05 -1.429691613196692e-05 -1.144289062797479e-26)
(-8.7161555788586e-05 -1.392990636543274e-05 -3.01021707052259e-27)
(-8.23012054216582e-05 -1.326406811390288e-05 7.177834400380731e-27)
(-7.681414041230445e-05 -1.258680489830723e-05 -5.732027168158412e-27)
(-1.168106074747668e-06 4.652883767546298e-06 1.231461308266625e-25)
(-4.138219983822021e-06 2.298207992656271e-05 -2.833521398140055e-25)
(-1.316235168275516e-05 3.831342231945133e-05 -2.467438831902221e-25)
(-3.09372410051508e-05 4.633074031234532e-05 -6.946907263096786e-25)
(-5.157030114092261e-05 4.816413237355919e-05 -2.878845995022256e-25)
(-7.537661564044874e-05 4.434778223372642e-05 -5.577135372745412e-25)
(-9.448702426971028e-05 3.692425765695362e-05 4.787324387500235e-25)
(-0.0001133882306862812 2.728123109429218e-05 1.834267967077457e-26)
(-0.0001278672630029707 1.657269062490357e-05 2.451967376608672e-25)
(-0.0001335681172506446 6.660181809328963e-06 1.081661527960538e-25)
(-0.0001341639164575187 -9.377341026456738e-07 -6.366978108685671e-26)
(-0.0001314818881987134 -1.128409716895689e-05 5.010443273191189e-25)
(-0.000125278776055076 -4.698843319610197e-06 6.028689150187671e-25)
(-0.0001195653257688561 -1.851542115838608e-06 6.22721225553746e-25)
(-0.0001134886009965205 1.752736473989134e-06 -9.898826338257174e-26)
(-0.000109005783829725 7.891165628191059e-06 1.957548112580926e-25)
(-0.0001071915471198985 1.288412584570153e-05 2.934217397364321e-25)
(-0.0001082945866165144 1.561956925226975e-05 -1.566643079298136e-25)
(-0.0001122949162258977 1.622281071928399e-05 -1.424047564424308e-25)
(-0.0001188636040343554 1.522961902445234e-05 -2.674389575446661e-25)
(-0.0001267064952049244 1.290537104711482e-05 -1.5295159456327e-25)
(-0.0001343012293500925 9.229841016190044e-06 -9.957750805340457e-26)
(-0.0001400791070313067 4.790071150624606e-06 -1.665518078639047e-25)
(-0.0001426903400514606 -2.576430819772445e-06 3.993414790682735e-26)
(-0.0001413256378671958 -9.693533063117314e-06 1.05048476114912e-25)
(-0.000135484561597371 -1.572334435987116e-05 1.073155965693219e-27)
(-0.0001254230679158328 -1.953497490013633e-05 4.597777890330851e-27)
(-0.0001122205579412649 -2.071992297853712e-05 4.972834780183216e-26)
(-9.699372222770884e-05 -1.993362860993067e-05 -5.070783029149002e-26)
(-8.167249765081868e-05 -1.812612727983151e-05 -1.760590856795627e-26)
(-6.52275466994893e-05 -1.267835397909724e-05 -5.346724187113647e-26)
(-5.381319471257042e-05 -1.03606277000412e-05 1.28571712303309e-25)
(-4.31228158018154e-05 -8.774994380787207e-06 -3.205750811449173e-26)
(-3.852665450747663e-05 -8.397585081244938e-06 -2.310587286083898e-26)
(-3.59772797808232e-05 -8.908775823071009e-06 5.503344171485671e-26)
(-3.58954359551362e-05 -1.10489879965785e-05 2.242869237349555e-27)
(-3.70066850516226e-05 -1.410925107198765e-05 1.55035067451402e-26)
(-3.688331593331479e-05 -1.739155494937156e-05 3.663808083906098e-27)
(-3.709335096183191e-05 -2.023569607407676e-05 8.124123395973878e-27)
(-3.273008601983798e-05 -2.117968320615761e-05 1.115662178943802e-26)
(-7.533337769460862e-07 6.212067985261795e-06 -5.986597084106829e-26)
(-4.123017012937699e-06 3.045807222426063e-05 6.512383101193864e-25)
(-1.305838041497078e-05 5.146024374523363e-05 -6.256096358752923e-25)
(-3.015898477272251e-05 6.421462778933143e-05 9.118832649188421e-25)
(-5.166203091790019e-05 6.920243103992319e-05 7.955673722447267e-25)
(-7.435404220134359e-05 6.774512665257196e-05 9.718448773370133e-25)
(-9.730777808018391e-05 5.819070307203006e-05 -9.801485700454209e-25)
(-0.0001181098494076269 4.374675727114473e-05 -2.149419695564239e-25)
(-0.0001325329779682451 2.730811769637489e-05 5.39189744510815e-26)
(-0.0001441919150795367 1.039422307245469e-05 2.851151630974422e-25)
(-0.0001447025510641716 -1.945822718751531e-06 5.538143570870243e-25)
(-0.0001439206994792227 -1.0547012815279e-05 3.089723498328087e-26)
(-0.0001358394805614824 -1.287145369332371e-05 -5.111403729086956e-25)
(-0.000126468646941495 -1.025616632035454e-05 -1.913815554705588e-25)
(-0.0001135302129673991 -4.378891701839498e-06 -1.383976712966032e-26)
(-0.0001062339296269784 2.840164495314447e-06 -4.111971198897842e-25)
(-9.96667964878303e-05 1.055734003607401e-05 -2.14453388530614e-25)
(-9.861920507125266e-05 1.531879356161459e-05 1.391776836225865e-25)
(-0.0001034828225816567 2.131500527586917e-05 2.248186062428186e-25)
(-0.0001119779270996034 2.313760321228563e-05 6.945528030919264e-25)
(-0.0001218873894795579 2.14265869569816e-05 2.216565856202176e-25)
(-0.0001311175881712439 1.633948467381242e-05 -9.403607499840163e-26)
(-0.0001385558281943768 8.376349615098718e-06 -2.159226085307711e-25)
(-0.0001429583293034959 -1.566287706707011e-06 6.078984719149086e-26)
(-0.0001432351444240717 -1.211244203327426e-05 -2.591597421857204e-25)
(-0.0001382860378335082 -2.216367558428798e-05 -6.742628953569443e-26)
(-0.0001282417293960649 -2.993976779166057e-05 -2.510640249193415e-25)
(-0.0001136070506376745 -3.432166090239101e-05 -1.60099728924214e-25)
(-9.535288525179403e-05 -3.660464037140777e-05 8.525042498231252e-26)
(-7.402605178297759e-05 -3.693939179156391e-05 -3.27683066174504e-26)
(-5.101710109030483e-05 -3.485299193991802e-05 3.375973867492329e-26)
(-2.849371039988043e-05 -3.127067878289833e-05 -1.247461319089447e-26)
(-8.377384458043937e-06 -2.60597401094726e-05 6.674258944489301e-26)
(7.668151223439019e-06 -2.095855741026596e-05 8.029611822253427e-26)
(1.848289880688514e-05 -1.729811482491625e-05 8.191028237031085e-28)
(2.42565933452181e-05 -1.478881105815296e-05 1.42048748268206e-26)
(2.591530250358953e-05 -1.285690724952005e-05 1.326423492339074e-26)
(2.580853816157393e-05 -1.371924894671897e-05 -2.382262831542686e-26)
(2.397153819937306e-05 -1.622924694749454e-05 -1.17122406455944e-26)
(2.636819726119461e-05 -1.955132967699721e-05 2.399289697677091e-27)
(-7.622281120552365e-07 8.501920741592818e-06 3.173205443603773e-25)
(-4.534239075494118e-06 3.809380216330478e-05 -3.944232327044466e-26)
(-1.430919200588736e-05 6.528562988370251e-05 9.788422867392164e-25)
(-3.165984676257522e-05 8.408471063651187e-05 -5.210660245066777e-25)
(-5.388457940411915e-05 9.273690298139779e-05 -7.77260636077433e-25)
(-7.731500058032035e-05 9.138703233298287e-05 1.63064758644219e-25)
(-0.0001004664141533626 8.013585840671967e-05 2.090471647433747e-25)
(-0.0001207877972329769 6.185801109027025e-05 -1.066732597542462e-25)
(-0.0001351960612967829 4.017184960383059e-05 -4.338214949256331e-26)
(-0.0001453159671352282 1.769491409777507e-05 -4.48816222943845e-25)
(-0.0001478535440779104 -1.713464574744779e-06 -6.394365122166011e-25)
(-0.0001462914691804955 -1.619720518146534e-05 -4.487223946383941e-25)
(-0.000139278138087162 -2.329027918194287e-05 3.883546071387059e-25)
(-0.0001291810058729874 -2.344872351494488e-05 2.960352871413253e-25)
(-0.0001171314604681757 -1.702608364734572e-05 8.391145002031446e-26)
(-0.0001072141475947308 -6.666092135902839e-06 8.359130366218152e-25)
(-0.0001006274632043955 5.830065553020901e-06 -1.345641234709062e-25)
(-9.875198317656583e-05 1.761960249079662e-05 -5.0893051782324e-25)
(-0.0001024998419184449 2.912444275531825e-05 -2.45749365286566e-25)
(-0.0001108362930574747 3.321562028900563e-05 -9.705480354243317e-26)
(-0.0001210893299792171 3.19805267419101e-05 -2.244228193260258e-25)
(-0.0001343965867510573 2.721416185435882e-05 1.708775005555851e-25)
(-0.0001442741479042429 1.576870229630642e-05 3.005842001808482e-25)
(-0.0001516819841858458 2.547062606495337e-06 -1.219432363880979e-25)
(-0.0001532391880597565 -1.447422557178895e-05 -1.941630822821996e-26)
(-0.0001469626779719971 -3.112604142793958e-05 -3.745454281824529e-25)
(-0.0001383843056780944 -4.492395264199084e-05 2.526076461052963e-25)
(-0.0001142074350565237 -5.54543601244455e-05 9.918019313949226e-26)
(-8.952632826290244e-05 -6.071149153882516e-05 -2.101885284454989e-25)
(-6.332857263692983e-05 -6.36033831225293e-05 7.49990435046853e-26)
(-3.759050587615115e-05 -5.836896048529968e-05 8.390776977027514e-26)
(-1.383887909854427e-05 -5.310592558637916e-05 -9.220061371322268e-26)
(7.078060916642339e-06 -4.415572283970733e-05 -1.378023216172718e-25)
(2.376998557771142e-05 -3.447794439777292e-05 1.944199078959008e-27)
(3.616731616140034e-05 -2.388050109032404e-05 -4.618173023236599e-27)
(4.42651321236137e-05 -1.907613174921313e-05 -3.414532046180651e-26)
(4.973928989022148e-05 -1.447767899500547e-05 1.056472261343518e-26)
(5.390413786160016e-05 -1.72883692918439e-05 6.444791739169802e-26)
(5.817819393273125e-05 -2.112161247846099e-05 3.137553410094405e-26)
(6.467419146081262e-05 -2.544074273511299e-05 -1.51644248933466e-27)
(-7.705017930053235e-07 1.034225601124039e-05 -7.981190147148414e-25)
(-4.80153695506001e-06 4.527281687540687e-05 9.92768453527677e-25)
(-1.513818248671838e-05 7.876885835708001e-05 6.841272592909648e-26)
(-3.268684774718427e-05 0.0001030366947133457 -1.202402497027556e-24)
(-5.514444937782044e-05 0.0001150579873630806 4.762269969454375e-25)
(-7.934120345541865e-05 0.0001141302294743529 -1.859666163766938e-24)
(-0.000102607600862522 0.000101323655982399 1.067363988495012e-25)
(-0.0001228617144176308 7.924072397025177e-05 2.474699466759605e-25)
(-0.0001376114262549839 5.215012437831906e-05 5.271399657617103e-25)
(-0.0001466299722048561 2.398194520391921e-05 8.263267061713246e-25)
(-0.0001490761919061564 -1.19384671062691e-06 9.854744962385206e-26)
(-0.0001461238932949878 -2.015797130117506e-05 5.925157316317227e-25)
(-0.0001386765662533301 -3.076528074703828e-05 -1.10923501465772e-24)
(-0.0001289019784898234 -3.262208357723919e-05 -4.746596534444376e-25)
(-0.0001187224273769339 -2.644662717915938e-05 -4.314806551173643e-25)
(-0.0001100559636196094 -1.408520471882849e-05 -2.316672622299224e-25)
(-0.000104710909575979 2.059929462228836e-06 5.515078819091776e-25)
(-0.000104225794687577 1.863384961976492e-05 1.193735495997889e-24)
(-0.0001079048561551572 3.30247576982334e-05 5.355259732044683e-25)
(-0.0001156965466474559 4.216510198008493e-05 -3.979845777801411e-25)
(-0.000126827157353749 4.431224450603067e-05 4.167432181569766e-25)
(-0.0001394904495576853 3.898478593646273e-05 -3.559317129467339e-26)
(-0.0001498668818595245 2.565128608130867e-05 -3.786194643638434e-25)
(-0.0001577464757550431 7.247363191966141e-06 5.136926808582758e-26)
(-0.0001582235415673859 -1.608319880763516e-05 -2.587797832958495e-28)
(-0.0001536627043294556 -3.859790365752631e-05 6.466915030378958e-25)
(-0.0001399360746827253 -6.116670294262261e-05 -1.045669737124458e-26)
(-0.0001217900451542059 -7.7829417784648e-05 2.939543114855671e-25)
(-9.525300415797283e-05 -8.927223476673797e-05 1.441889600435229e-25)
(-6.717243705456813e-05 -9.101246805618974e-05 -1.414820430765264e-25)
(-3.510945772388166e-05 -8.588821982119894e-05 -2.890759662709704e-25)
(-1.576858521514249e-06 -7.646473315547247e-05 2.557477218421892e-25)
(1.692713366468888e-05 -6.396826388480476e-05 1.584528916521778e-25)
(3.843701944643463e-05 -4.986149708915039e-05 1.074008558878223e-25)
(5.290718987876694e-05 -3.711063127977696e-05 2.000980751230836e-26)
(6.36146907640617e-05 -2.772418119563745e-05 4.086094632546938e-26)
(7.000721892567365e-05 -2.235536875189248e-05 -1.266833393109703e-26)
(7.344614143606399e-05 -2.223823652294796e-05 -4.808927410894605e-26)
(7.154789764477889e-05 -2.560875564381167e-05 1.498457936551335e-26)
(8.226972249936659e-05 -3.173582936423071e-05 -3.723149104169922e-26)
(-7.583666344842393e-07 1.245870206711751e-05 7.950955442403033e-25)
(-4.945101650355443e-06 5.361679068075853e-05 -1.198725441919884e-24)
(-1.582747508643433e-05 9.353714513263492e-05 -2.317620385056347e-25)
(-3.38110023599298e-05 0.0001233261045120464 1.469020467277737e-24)
(-5.668759074005562e-05 0.0001389287221180006 3.189476690723078e-26)
(-8.157495360721194e-05 0.000138612239094514 1.775734149188923e-24)
(-0.0001055503526568665 0.0001234616603840047 5.372944969452319e-25)
(-0.0001259668945297594 9.691871934998428e-05 4.79091138184601e-25)
(-0.0001408466183172049 6.375970843790449e-05 -3.320197712717517e-25)
(-0.0001494793945137015 2.907261337606645e-05 -2.975425162171189e-25)
(-0.0001514572942378506 -2.23082910212601e-06 -1.750366397682727e-25)
(-0.0001479909828410627 -2.619540007037337e-05 -2.183733540825449e-25)
(-0.0001402179815365258 -4.015122651616122e-05 1.161551033815258e-24)
(-0.0001305675968511884 -4.318835874333675e-05 3.163756704357331e-25)
(-0.0001207924687136789 -3.589076091485659e-05 -1.708412852943421e-25)
(-0.0001131574979986446 -2.053979649285491e-05 -2.528727925792918e-25)
(-0.0001094840474453973 -1.730476273669329e-07 -1.379317871695988e-24)
(-0.0001100846126424923 2.110697836602347e-05 -1.622842977844971e-24)
(-0.0001159942752425808 3.992781155547021e-05 1.310463900403627e-25)
(-0.0001248720389246157 5.231993975568391e-05 2.197647130874863e-25)
(-0.000136987576807175 5.620556446440349e-05 -2.999453081333549e-25)
(-0.0001487177517640797 5.004794151860517e-05 1.326041381580158e-25)
(-0.000158805560990017 3.422654226563494e-05 -3.763114475862468e-26)
(-0.0001648460451088693 1.067731871714074e-05 -3.035161484128445e-25)
(-0.000164359070046861 -1.86444402763749e-05 -4.203174491698494e-26)
(-0.000158113363172442 -4.88708643250392e-05 -2.440748870235486e-25)
(-0.000143044056531426 -7.819185332166663e-05 2.846355869202338e-25)
(-0.0001232311447325669 -0.0001008727836504458 -3.889492108503254e-25)
(-9.621814212219084e-05 -0.000116539315582827 1.165467703288116e-25)
(-6.745294159063453e-05 -0.0001219992022943136 3.718612153499665e-25)
(-3.668034645491519e-05 -0.0001186588990743754 2.643028479563891e-25)
(-5.796762588063582e-06 -0.0001071390943643997 -2.200204384404038e-25)
(2.029098015025716e-05 -8.784678746102949e-05 -2.945421724347994e-26)
(4.425490337174143e-05 -6.916226101577226e-05 1.871627719421661e-26)
(5.950534794690485e-05 -4.964163959238314e-05 2.712058941744913e-26)
(7.152597207676075e-05 -3.60273603619401e-05 -1.038962388494039e-26)
(7.576687160131909e-05 -2.548964194526431e-05 -8.113451353267737e-26)
(8.035517069085828e-05 -2.227483581659661e-05 1.32667695766452e-26)
(8.052187218752737e-05 -2.534555091117327e-05 -8.980276142924236e-26)
(8.484747482175847e-05 -3.403839967574007e-05 1.502981452901922e-26)
(-7.790134523580315e-07 1.458072009502052e-05 -4.14933350184562e-25)
(-5.128605071844891e-06 6.21893660524838e-05 -1.065342959646197e-24)
(-1.660663885108183e-05 0.000108281374069966 -5.022089188587613e-25)
(-3.507096622808689e-05 0.0001434635189669993 9.932078028547339e-25)
(-5.816773445462e-05 0.0001627668897906571 -6.823757852493595e-25)
(-8.363803572248227e-05 0.0001631447146500619 -3.181975440706445e-25)
(-0.0001083604227708459 0.0001456960369789015 -1.732186442820272e-26)
(-0.0001291974071398134 0.0001146930850057249 -1.888965888498188e-25)
(-0.0001443287213357241 7.561480173770975e-05 -2.750702667114257e-25)
(-0.0001529631759378483 3.453448831524735e-05 -7.829065091411741e-25)
(-0.000154851892653799 -2.768497694939837e-06 6.11712383651123e-25)
(-0.0001511766749053744 -3.151722323743444e-05 4.43151366523183e-27)
(-0.0001433318395010051 -4.847294924291864e-05 6.788775819068563e-26)
(-0.0001337569830935892 -5.238270205202957e-05 -7.200546979527711e-25)
(-0.0001244525783675175 -4.387464418019421e-05 4.024614431141518e-25)
(-0.0001176991243756288 -2.552694967299775e-05 1.678827970632937e-25)
(-0.0001150154832254616 -9.859432362871136e-07 7.697512312358859e-25)
(-0.000116973444096955 2.497536697269932e-05 1.547181158970754e-24)
(-0.0001238861984656764 4.787997485328658e-05 2.008577673726476e-25)
(-0.0001340866733808117 6.322044188695374e-05 2.026211486934116e-25)
(-0.0001467091788064072 6.811832639794607e-05 6.231150720010169e-26)
(-0.0001587031940857101 6.085587341634168e-05 -2.400011356185707e-26)
(-0.000168510590419504 4.170545853455756e-05 6.521733250022041e-25)
(-0.0001734921147242447 1.281769023033905e-05 6.32083984868429e-26)
(-0.0001720435080500976 -2.2921765595357e-05 8.020627370570721e-27)
(-0.0001638565353780725 -6.036354792011146e-05 2.596146630264302e-25)
(-0.0001477880559939922 -9.609377628360817e-05 -1.035388481403588e-25)
(-0.0001261499889564743 -0.0001247683501183616 -1.189238935065247e-25)
(-9.879603436259985e-05 -0.0001443555400077453 1.868824693813162e-25)
(-6.92383577431626e-05 -0.00015223124551889 -6.669610905394665e-25)
(-3.861345416370539e-05 -0.0001481674856878351 -1.213158806316852e-26)
(-9.254490940910358e-06 -0.0001344726724879039 -6.499965059454411e-26)
(1.576548999290297e-05 -0.0001120918263194438 -2.224282092349472e-25)
(3.795202033140682e-05 -8.858572132873168e-05 -1.653136011423307e-25)
(5.286076072414098e-05 -6.379104982266987e-05 -9.989141086019931e-26)
(6.440924044251215e-05 -4.459588080240144e-05 -2.923258309193852e-26)
(7.019212489861888e-05 -3.083608404523837e-05 -1.309870751933992e-25)
(7.640357814514781e-05 -2.643387815330718e-05 1.110669557631207e-25)
(7.89430629343666e-05 -2.971394826544826e-05 8.138164236356022e-26)
(8.6842622304486e-05 -4.0171011692889e-05 2.179566449263278e-26)
(-7.980769890045336e-07 1.674057776247394e-05 -6.374114830344421e-25)
(-5.285859783458764e-06 7.126004642963938e-05 6.281082557594701e-25)
(-1.736894975310286e-05 0.0001236844380000643 7.392503043991682e-25)
(-3.643271325270753e-05 0.0001641356512166008 -7.001157299479001e-25)
(-5.971697498072423e-05 0.0001872687678509496 2.501606513189791e-25)
(-8.56836688931915e-05 0.0001886031336721706 5.063972976442436e-25)
(-0.0001113659161638469 0.0001687972494079902 -5.965943625115615e-25)
(-0.0001329960412866904 0.0001329853814669389 -4.855979009674894e-25)
(-0.0001486144325145243 8.76019002986744e-05 -5.833065606180909e-25)
(-0.0001575083136894722 3.973437653199289e-05 4.689274681430436e-25)
(-0.0001594652420916921 -3.861573227828527e-06 1.924458089987896e-25)
(-0.000155692530149624 -3.753219540498799e-05 -4.88852046219928e-25)
(-0.0001477794304889596 -5.743479926887611e-05 -1.713792883485124e-25)
(-0.0001382155543046978 -6.199174472188793e-05 7.86965045533194e-25)
(-0.0001291941996648719 -5.186484808405286e-05 -6.649060499872159e-26)
(-0.000122950750801982 -3.005523908910083e-05 -2.235572431048139e-25)
(-0.0001210716843856674 -8.924985843203244e-07 1.646994387523509e-25)
(-0.0001240460916337973 2.994718136339304e-05 -1.540081985628709e-24)
(-0.0001320532825069856 5.706583789290545e-05 -3.649014969730151e-25)
(-0.0001433499609226241 7.518895652298244e-05 -1.304204654415259e-24)
(-0.0001567833190652882 8.081383391228536e-05 -5.899189313358913e-26)
(-0.0001693195901199815 7.198376049922839e-05 -1.17381413014186e-25)
(-0.0001791486417177496 4.892816177944437e-05 -1.884709216493466e-25)
(-0.0001838474127819665 1.435193729845617e-05 2.925856091445085e-26)
(-0.0001816410922117586 -2.835331422925809e-05 5.496916917871618e-25)
(-0.0001725320503719473 -7.304931764916101e-05 -8.965034707725535e-25)
(-0.0001552487730487147 -0.0001156894720682953 5.779499242600923e-25)
(-0.0001324995077951042 -0.0001499445024603421 2.926677056692681e-25)
(-0.0001040800772568938 -0.0001732476812562365 -1.044624390097212e-26)
(-7.373239670883258e-05 -0.000182684545103609 2.414995720305693e-25)
(-4.292800834215082e-05 -0.0001778010207721774 -1.664458071902925e-25)
(-1.364908293999049e-05 -0.0001616963626924305 -1.087409978994345e-25)
(1.073163886416104e-05 -0.0001351761721492582 5.158219604953522e-25)
(3.246052432665149e-05 -0.0001066767514173629 -1.073728615172938e-25)
(4.679001547484155e-05 -7.659411842598871e-05 1.311394074853889e-25)
(5.917473777513095e-05 -5.350858559366453e-05 9.388083540857377e-28)
(6.588966858462291e-05 -3.726624181413446e-05 1.382282030083903e-25)
(7.437700332651071e-05 -3.220468426599287e-05 -1.899752188424602e-25)
(7.928555196190932e-05 -3.625189990988836e-05 -4.319785188789784e-26)
(9.056584912869878e-05 -4.914734786984457e-05 -5.948355509747106e-26)
(-8.28188631921817e-07 1.892783916305631e-05 9.054650674822499e-25)
(-5.471022486338674e-06 8.085163979267204e-05 2.062300744356887e-24)
(-1.817058474542318e-05 0.0001397287043787622 -9.858395496122911e-25)
(-3.793016582591378e-05 0.0001850905698650163 -1.271217084173714e-24)
(-6.133476574516464e-05 0.0002119912423023124 -1.327104696673265e-26)
(-8.755064884291269e-05 0.000214671860109141 -1.099753385934877e-24)
(-0.0001142863956333508 0.0001927672378366713 1.883528269940729e-25)
(-0.0001371186031765317 0.0001520730387053421 -4.604952070670248e-25)
(-0.0001535397231057128 0.0001001831889725854 5.491540672142672e-25)
(-0.0001628965519616528 4.533456973567934e-05 5.22851068913176e-25)
(-0.0001650567133970688 -4.666607368140539e-06 -6.502095647499656e-25)
(-0.0001613024665013143 -4.327016478817616e-05 7.175777656141055e-25)
(-0.000153357393797947 -6.604361737402819e-05 -8.400022154949208e-25)
(-0.000143832689940937 -7.112394392242352e-05 -3.284791094355775e-25)
(-0.000135006926405631 -5.9219253154174e-05 3.844326156032301e-25)
(-0.0001291795616885612 -3.379185343519367e-05 3.350961580867017e-25)
(-0.000127960910261587 1.278825933065335e-07 1.269722839110375e-25)
(-0.000131802932979832 3.590200267989826e-05 5.694761976581681e-25)
(-0.0001408334753538946 6.722818594681333e-05 3.69101224387382e-25)
(-0.0001531560238423286 8.798806489179324e-05 1.254563097806926e-24)
(-0.000167555219479838 9.410339953388693e-05 -6.0249759234118e-25)
(-0.0001807968745925382 8.338603014643586e-05 2.620822694260087e-26)
(-0.000191063901872349 5.612899735385639e-05 -3.460532198252781e-25)
(-0.0001958262227350847 1.5526416214877e-05 1.141976456751853e-25)
(-0.0001933421369867661 -3.441730891775542e-05 -1.913628124596598e-25)
(-0.0001836290765779241 -8.663442183651435e-05 1.101629240191502e-24)
(-0.0001654169530288975 -0.0001362633961455224 -6.465592804350437e-25)
(-0.0001416420779351567 -0.0001760828355509789 -8.117119252526882e-25)
(-0.0001120180367094514 -0.0002030072809397113 -2.34720578234529e-25)
(-8.07337802566493e-05 -0.0002137479844583052 7.307823694464262e-25)
(-4.912061242693481e-05 -0.0002078884395881562 2.082338427773504e-25)
(-1.939532269030366e-05 -0.0001888360423785219 -9.469530334350337e-26)
(5.281058880793584e-06 -0.0001580701167785515 -6.835157365084718e-25)
(2.733829156419974e-05 -0.000124810220095261 2.081570017960564e-25)
(4.202392785041698e-05 -9.025355797278232e-05 -1.227345551763224e-25)
(5.578731438344597e-05 -6.389295824647821e-05 -1.862723843644736e-25)
(6.399140974168999e-05 -4.57518617333343e-05 1.168462920375264e-25)
(7.488137323878804e-05 -4.041595954484908e-05 -9.512619311858504e-26)
(8.212816990211592e-05 -4.583142665023478e-05 6.930238843095642e-26)
(9.645748485704805e-05 -6.125951360136308e-05 5.69962764163627e-26)
(-8.642974959744268e-07 2.122748349515701e-05 -1.320804739892413e-26)
(-5.686542163157095e-06 9.087653026931463e-05 -9.503157234480546e-25)
(-1.901704537467054e-05 0.0001563200853054756 7.287135969094648e-25)
(-3.955320434497485e-05 0.0002063969338729467 1.628485513197842e-24)
(-6.308082538129242e-05 0.0002369806652636992 -4.20939963454253e-25)
(-8.915084793593293e-05 0.0002414955479808116 1.993165025567941e-25)
(-0.0001167420077754975 0.0002179661328036349 9.650927234738579e-25)
(-0.0001412825281947781 0.0001723090610858847 5.31706857534065e-25)
(-0.0001592116439363434 0.0001135359725519407 -4.283813863140619e-25)
(-0.0001694730967481744 5.134376731129699e-05 -7.62789147972532e-25)
(-0.000171974254621828 -5.369539355115309e-06 5.850252682545323e-26)
(-0.0001681630731106589 -4.913180449314307e-05 -2.903271322483024e-25)
(-0.0001600442619742561 -7.484874958716071e-05 1.110821879003478e-24)
(-0.0001504493467810653 -8.035377178347599e-05 -8.03902310457073e-25)
(-0.0001417080206341298 -6.6470968866879e-05 6.003880741360477e-25)
(-0.0001362063151164237 -3.718256208334115e-05 -6.130378062065726e-25)
(-0.0001355306316680273 1.767153719705303e-06 -1.909879998875995e-25)
(-0.000140151613565361 4.273922148917329e-05 -2.792182709707398e-26)