/*--------------------------------*- C++ -*----------------------------------*\
| =========                 |                                                 |
| \\      /  F ield         | OpenFOAM: The Open Source CFD Toolbox           |
|  \\    /   O peration     | Version:  2206                                  |
|   \\  /    A nd           | Website:  www.openfoam.com                      |
|    \\/     M anipulation  |                                                 |
\*---------------------------------------------------------------------------*/
FoamFile
{
    version     2.0;
    format      ascii;
    arch        "LSB;label=32;scalar=64";
    class       surfaceScalarField;
    location    "2";
    object      meshPhi;
}
// * * * * * * * * * * * * * * * * * * * * * * * * * * * * * * * * * * * * * //

dimensions      [0 3 -1 0 0 0 0];

oriented        oriented;

internalField   nonuniform List<scalar> 
35915
(
7.832115107174759e-28
2.125914078487658e-13
0
6.346143733749325e-13
-2.310449882492249e-27
1.049166093930288e-12
0
1.453918793865864e-12
1.452151774174373e-18
1.846775587310623e-12
4.442983961663625e-27
2.225986649176467e-12
-1.45215742630336e-18
2.590073703952227e-12
1.452160206474604e-18
2.937793722355966e-12
-1.452162940887085e-18
3.268198458909753e-12
0
3.580644616921125e-12
0
3.87480546554937e-12
0
4.150710047542962e-12
0
4.408754796303593e-12
0
4.649729674378892e-12
0
4.874816721296681e-12
0
5.085627809156277e-12
-1.452183549556483e-18
5.284182860547369e-12
7.260929699539835e-19
5.472920013538195e-12
0
5.654704334464181e-12
-7.260952850536988e-19
5.832776993168478e-12
-5.618439192033917e-27
6.010768332196099e-12
0
6.192638329211022e-12
7.260985424374055e-19
6.382650458506762e-12
7.260995624679187e-19
6.58530634484872e-12
7.261005520857392e-19
6.805277513038946e-12
0
7.047337137465917e-12
-6.869005690235312e-27
7.31625403611186e-12
-7.261032490324185e-19
7.616689568813731e-12
7.261040665483888e-19
7.953093083407084e-12
-3.630524134168207e-19
8.329536372101627e-12
0
8.749607665475482e-12
-4.357115572622311e-27
9.216212689712445e-12
0
9.73144978280686e-12
3.630536567794802e-19
1.029638190905958e-11
-3.630538868391788e-19
1.091088999323498e-11
0
1.157347252565139e-11
1.815271291164145e-19
1.228105242796069e-11
-1.815271964871914e-19
1.302880715311337e-11
0
1.381002928020625e-11
1.453507693875007e-11
9.076363310133677e-20
-1.4521400083505e-18
4.220128005670122e-13
-1.530536526804536e-27
1.259480550928898e-12
-1.452145868150708e-18
2.081554196717289e-12
-1.452148741128528e-18
2.883674027689973e-12
0
3.661707261883021e-12
0
4.412225403793819e-12
0
5.132247216099716e-12
0
5.819315682971427e-12
0
6.471532861332416e-12
0
7.087599088531609e-12
0
7.666872520016341e-12
0
8.209399624160488e-12
0
8.715989241280361e-12
0
9.188200966563117e-12
0
9.628409044018491e-12
-1.452180351781508e-18
1.00398096272416e-11
9.640290484878919e-27
1.042645417850816e-11
0
1.079320009617552e-11
0
1.114575282658524e-11
0
1.149060342223174e-11
-5.441201476547631e-27
1.183498062121147e-11
0
1.218680002242762e-11
0
1.25545682445535e-11
0
1.294728998925903e-11
7.260999059084291e-19
1.337430975828502e-11
7.261008152616666e-19
1.384516809185832e-11
-7.261016961831065e-19
1.436943021654491e-11
0
1.495646532040374e-11
7.261033116295392e-19
1.561519678543872e-11
0
1.635387129779451e-11
-3.630523618918853e-19
1.717975099471692e-11
-4.200238547766843e-27
1.809880706363988e-11
0
1.911538139425773e-11
0
2.023184532632533e-11
-3.630534531254548e-19
2.144821773762682e-11
1.815268244929168e-19
2.276178458406747e-11
-2.819603568300446e-27
2.416674167397132e-11
1.815269715295922e-19
2.565379387826221e-11
-9.076350839750427e-20
2.720983275604494e-11
2.865628611348204e-11
0
1.452139972349293e-18
6.271068249755191e-13
1.452142881326113e-18
1.871151159363321e-12
1.452145751602327e-18
3.091447244906296e-12
1.452148583105775e-18
4.281228123056992e-12
0
5.434374488440422e-12
1.452154136407858e-18
6.545750132376537e-12
-1.45215685062088e-18
7.610883925000792e-12
5.464304611172175e-27
8.626075821173397e-12
0
9.588452041712186e-12
0
1.04960507495491e-11
1.452167354478844e-18
1.134788594359813e-11
-1.452169894234231e-18
1.214401861363785e-11
0
1.288562934704388e-11
0
1.357506044084801e-11
0
1.421586091794599e-11
-1.452179615698811e-18
1.481281992622051e-11
0
1.537199432916751e-11
0
1.590068837604636e-11
0
1.640745951030439e-11
7.260943145996838e-19
1.690204866709039e-11
-5.19003613767523e-27
1.739533380482418e-11
0
1.789922680350831e-11
-7.260974014410743e-19
1.842654132021585e-11
-7.260983656582901e-19
1.899083595831e-11
1.452198588097165e-18
1.960623565461636e-11
0
2.028716158189723e-11
-6.266907829017198e-27
2.104811042402415e-11
0
2.190331893237724e-11
1.45220520019185e-18
2.286642267357767e-11
-3.582486487219509e-27
2.395007121322927e-11
0
2.51654953790568e-11
0
2.652206581126118e-11
0
2.802677600173554e-11
0
2.968372968970552e-11
3.630530463899129e-19
3.149358178897095e-11
-1.815266157268263e-19
3.345297350659805e-11
1.815266949736947e-19
3.555395148811814e-11
0
3.778340003195175e-11
1.532748336975044e-27
4.012245587818612e-11
4.230267116843431e-11
0
1.452139936285492e-18
8.266754680102972e-13
0
2.466096053581344e-12
-1.452145641535479e-18
4.073087515194426e-12
0
5.638613204128631e-12
1.4521511829151e-18
7.154520823178505e-12
1.452153900287322e-18
8.613919982164459e-12
-1.452156571045242e-18
1.001081190303854e-11
5.280586943893838e-27
1.134020123447901e-11
0
1.259821077061562e-11
0
1.378215986648498e-11
-6.753337547658657e-27
1.489069367828848e-11
-7.171898297530713e-27
1.592384705727253e-11
0
1.688315636443751e-11
0
1.777171610375646e-11
0
1.859423991203142e-11
8.51672702944771e-27
1.935710847932574e-11
0
2.006840294810794e-11
0
2.073788167925029e-11
7.26092794869879e-19
2.137699041671501e-11
-7.260938521645446e-19
2.199879113301298e-11
-4.868120959824954e-27
2.261786328384281e-11
0
2.325020796705992e-11
-5.117785678282354e-27
2.391306204909537e-11
0
2.462469050942135e-11
1.45219742406867e-18
2.540415990712892e-11
0
2.627100729370864e-11
0
2.724490767366461e-11
7.26101197183132e-19
2.834526159761764e-11
-7.261019332030597e-19
2.959075661689016e-11
-3.325864346838013e-27
3.09988561313061e-11
3.630516413433942e-19
3.258523596002535e-11
0
3.436318170464813e-11
0
3.634294109614024e-11
0
3.853100809126515e-11
7.261053352634886e-19
4.092941713398818e-11
0
4.353494448012393e-11
-1.815265026622782e-19
4.633834582538878e-11
-1.815265644186784e-19
4.932357650783147e-11
-1.468817493706513e-27
5.246699283246328e-11
5.540800158618238e-11
0
7.113743237918323e-28
1.019771936339173e-12
0
3.041495183472187e-12
0
5.021802030637222e-12
0
6.949265611566632e-12
0
8.813638195298449e-12
-2.904307332287105e-18
1.060619679478517e-11
4.535500821367126e-27
1.231932204701799e-11
-1.452158889683536e-18
1.394666375685579e-11
0
1.548326432847881e-11
1.452163966003871e-18
1.692566622361193e-11
0
1.827208476589548e-11
1.452168874460713e-18
1.952248800830137e-11
1.452171272102331e-18
2.067872742552015e-11
0
2.174461778154536e-11
0
2.272602135350807e-11
-1.452178214991204e-18
2.363090601722331e-11
0
2.446938445494617e-11
-7.260913142206232e-19
2.525370834672319e-11
-7.260923790089779e-19
2.599827127469088e-11
7.260934177370289e-19
2.67195172385228e-11
-7.260944289717559e-19
2.743584045783455e-11
0
2.816746484494982e-11
-7.260963578839867e-19
2.89362203757109e-11
0
2.976529332194901e-11
0
3.067893291978008e-11
0
3.170209414391441e-11
0
3.285997738026321e-11
0
3.417757535907618e-11
5.734965978377443e-27
3.567909956092958e-11
0
3.73873703191121e-11
0
3.932312850670612e-11
-3.387847192214871e-27
4.150428042533345e-11
0
4.39451121990106e-11
0
4.665539380561968e-11
0
4.963948310836403e-11
2.233892161025831e-27
5.28953354983139e-11
0
5.641352805833834e-11
-1.815263861793419e-19
6.01762343543574e-11
1.395550404106014e-27
6.415623698217295e-11
6.789729046306071e-11
0
6.844113045704102e-28
1.205543825530399e-12
1.452142664266474e-18
3.594818926370291e-12
0
5.933378141760578e-12
0
8.207298381901729e-12
0
1.040407965127718e-11
0
1.251306471633522e-11
-1.452156026073127e-18
1.452491343173486e-11
0
1.643182636953257e-11
0
1.822764646874044e-11
0
1.990808847305426e-11
0
2.147084493669966e-11
-6.419654135377364e-27
2.291575612461955e-11
-6.718534388621958e-27
2.424492618335877e-11
0
2.546284802483343e-11
0
2.657650933247928e-11
-1.45217754663592e-18
2.759546516781239e-11
-1.452179728203927e-18
2.853186556132224e-11
-1.45218186683633e-18
2.94005121456652e-11
0
3.021878845314852e-11
-7.260929956093485e-19
3.100662216009485e-11
-7.260939858473544e-19
3.17863732723848e-11
0
3.258263663474897e-11
-7.260958791242719e-19
3.342205170086295e-11
0
3.433299032382793e-11
4.347654441770508e-27
3.534521986047067e-11
7.260984751756544e-19
3.64894472002689e-11
-7.260992678763865e-19
3.779687150710732e-11
0
3.929856560898819e-11
7.261007319317174e-19
4.102485883974754e-11
3.630506968421398e-19
4.300460951841413e-11
0
4.526438158753561e-11
-3.630512961867518e-19
4.782758204375701e-11
0
5.071349236246417e-11
0
5.393623602831939e-11
-3.630519995188897e-19
5.750366619833991e-11
1.815260894490133e-19
6.141619527944012e-11
-2.218826774653565e-27
6.566558675043198e-11
2.412748861371617e-27
7.023369470709331e-11
-9.076313368189171e-20
7.509117872089854e-11
7.968174542873769e-11
0
6.547680328430505e-28
1.383273779874814e-12
0
4.123883268243591e-12
0
6.804178245313469e-12
0
9.407565141478251e-12
0
1.191913777016937e-11
0
1.432616669823547e-11
0
1.661745304502162e-11
0
1.878360729252542e-11
0
2.081720321192588e-11
0
2.271297245021863e-11
-5.687295199899812e-27
2.446800782903201e-11
1.452167906636884e-18
2.608191872354227e-11
-1.452170222643396e-18
2.755701257947655e-11
0
2.889840237127075e-11
0
3.011416198071549e-11
6.735193682640907e-27
3.12154104210872e-11
0
3.221636701801956e-11
-3.458560920006293e-27
3.313439352181736e-11
-7.260915878271506e-19
3.398995780372269e-11
0
3.48065873878093e-11
-3.53304626060547e-27
3.561073149779794e-11
-7.26094503192586e-19
3.643157953994019e-11
1.452190830357545e-18
3.730082440475662e-11
0
3.825231685833344e-11
0
3.932169669960268e-11
0
4.054588015594415e-11
-7.260987432756672e-19
4.196255453947641e-11
-7.26099479113446e-19
4.360947686490729e-11
-7.261001780734862e-19
4.552378118014013e-11
-2.242027208863838e-27
4.77411261618973e-11
3.630507249906592e-19
5.029480640780794e-11
3.630510045534018e-19
5.321473739265454e-11
0
5.652633441859627e-11
0
6.024932621920972e-11
0
6.439646836609019e-11
1.821053028030225e-27
6.897215212159491e-11
5.445780397605714e-19
7.397096537103913e-11
-1.815260724900346e-19
7.937615045319798e-11
0
8.515809538992036e-11
9.065543889602562e-11
1.312060337928314e-27
6.228617934310358e-28
1.552341736902184e-12
-1.452142524751828e-18
4.626867229108611e-12
0
7.63115140139071e-12
0
1.054573416565536e-11
1.452150437864005e-18
1.335315938256334e-11
0
1.603841921615089e-11
-1.452155494709208e-18
1.858832390580485e-11
0
2.099173120415765e-11
0
2.323977726684929e-11
-1.452162783676296e-18
2.532611625505278e-11
1.452165126919253e-18
2.724710766125607e-11
1.452167435376857e-18
2.900203848620155e-11
0
3.059329459107465e-11
0
3.202656109221717e-11
-1.452174118250398e-18
3.331094869732368e-11
6.008676734661338e-27
3.445910987630318e-11
0
3.548734341504978e-11
-3.023196431369459e-27
3.641560748484513e-11
-7.260912132865148e-19
3.726753271138945e-11
-7.260921927861853e-19
3.807035102026958e-11
-7.260931524250605e-19
3.885477656163234e-11
0
3.965479805460061e-11
0
4.05074246633343e-11
0
4.145232586696968e-11
-1.452193351840996e-18
4.25314146963729e-11
0
4.378830608699204e-11
7.260982430524262e-19
4.526771133771986e-11
0
4.701473818088249e-11
7.260996613156632e-19
4.90740703247561e-11
-3.630501562552972e-19
5.148905405944059e-11
0
5.430071225581444e-11
-2.078172700314018e-27
5.754657975160161e-11
0
6.125949807769816e-11
0
6.546625044931921e-11
0
7.018608784697254e-11
-1.815258005334764e-19
7.542914909133839e-11
-1.815258767987615e-19
8.119476184297669e-11
1.969699711638974e-27
8.746964195241454e-11
0
9.42260448897128e-11
1.006923892654664e-10
0
0
1.71227429995174e-12
0
5.102325932766784e-12
0
8.411881254030499e-12
0
1.161840600151512e-11
1.452150253867961e-18
1.470166609785963e-11
0
1.764419088263011e-11
3.601360600674501e-27
2.043060658117597e-11
-1.452157659283138e-18
2.304784686455146e-11
0
2.54854636068392e-11
0
2.773584180154416e-11
0
2.979448127605889e-11
0
3.166020725153116e-11
0
3.333540268476978e-11
0
3.482621592396846e-11
0
3.614272770426771e-11
0
3.729909490955708e-11
-1.45217770470345e-18
3.831366819535821e-11
7.260898621040678e-19
3.92090515265424e-11
0
4.001209636881741e-11
0
4.075385957659944e-11
-7.260927521029073e-19
4.14694756052056e-11
0
4.219795756779667e-11
7.260945451385337e-19
4.29819213295864e-11
7.260953997569424e-19
4.386719778711747e-11
7.260962256704568e-19
4.490238851433712e-11
0
4.613829652500013e-11
-7.260977734635647e-19
4.762727281085221e-11
0
4.942245106550476e-11
2.360728691102912e-27
5.157688075865809e-11
3.630499086299581e-19
5.414252661363392e-11
7.261004149122717e-19
5.716919983453363e-11
-3.630504853551046e-19
6.07033034599052e-11
3.630507374876073e-19
6.478650075302866e-11
0
6.945421078801558e-11
-3.630511726998392e-19
7.473398496056678e-11
1.815256751703018e-19
8.064371505092652e-11
-3.630515006453364e-19
8.718967864744594e-11
3.630516227318813e-19
9.436447711199584e-11
0
1.021448181667481e-10
1.096440225898179e-10
-9.076293851729331e-20
5.542906627027476e-28
1.862730216802872e-12
0
5.549253048250001e-12
0
9.144676063638215e-12
0
1.262314977184367e-11
0
1.596143271980623e-11
0
1.913939393207466e-11
1.452154971356226e-18
2.213922875654417e-11
-1.452157355912202e-18
2.494577252627249e-11
0
2.754677646558509e-11
-1.452162014840721e-18
2.993320102149386e-11
0
3.209950774334818e-11
-1.452166507706758e-18
3.404391631118406e-11
0
3.576866446815254e-11
0
3.728025488383701e-11
0
3.858964974066002e-11
-1.452175033649362e-18
3.971245951146797e-11
0
4.066906784375013e-11
7.260895219847795e-19
4.148472740032493e-11
0
4.218957873717062e-11
-7.260914404522147e-19
4.281860383516247e-11
-1.730440030323826e-27
4.341152009396111e-11
7.260932620808349e-19
4.401258284146153e-11
1.452188266991103e-18
4.467027602851603e-11
0
4.543695500333625e-11
0
4.636832809847698e-11
7.260965722094555e-19
4.752290046240727e-11
0
4.896125815595627e-11
7.260980344714607e-19
5.074527818974844e-11
0
5.293718608728044e-11
3.630496739938286e-19
5.559852777197593e-11
0
5.878901657031118e-11
-9.227832525518157e-28
6.256522047994727e-11
-3.630505025818358e-19
6.697911293703649e-11
0
7.207647836973216e-11
0
7.789512026113787e-11
9.622929028901059e-28
8.446290366854323e-11
1.815256318883175e-19
9.179556975727324e-11
-1.815256950064905e-19
9.989437607799192e-11
8.254841683640076e-28
1.087435204756219e-10
1.173371570078671e-10
0
1.452139692773438e-18
2.003532326676211e-12
1.452142311568283e-18
5.967093859100564e-12
-1.498999423965195e-27
9.828602105972615e-12
0
1.355862224976943e-11
0
1.713064988560077e-11
1.452152315983245e-18
2.052164395537199e-11
0
2.371115256115301e-11
0
2.668166147852564e-11
0
2.941892524310772e-11
-1.452161630459442e-18
3.191226629149078e-11
0
3.415492492586485e-11
0
3.614433667206139e-11
0
3.788243432469715e-11
0
3.937593982591287e-11
1.452172387625005e-18
4.06365995120781e-11
1.452174427023158e-18
4.168138160434341e-11
0
4.253266789062255e-11
0
4.321835247092999e-11
0
4.377190274719446e-11
-7.260910762913984e-19
4.423232457198122e-11
-1.04944725140471e-27
4.464406350312574e-11
0
4.505680005242556e-11
-7.007094867247914e-28
4.552517232741718e-11
0
4.61083766938042e-11
0
4.686965662317745e-11
7.260961461644335e-19
4.787570296038714e-11
-1.452193777841332e-18
4.919592349866139e-11
7.260975975494887e-19
5.09016181657592e-11
-7.26098270230624e-19
5.306501335289318e-11
3.630494525484697e-19
5.575818733324158e-11
0
5.905187224903439e-11
-2.597557888951758e-28
6.301409926756273e-11
3.630502807994069e-19
6.770869707163621e-11
3.630505112245667e-19
7.319359866773959e-11
-3.630507185769153e-19
7.951896232073753e-11
6.022874449470073e-28
8.672504272101212e-11
-1.815255274659206e-19
9.483982690537687e-11
-1.81525590234443e-19
1.038763536121575e-10
-9.076281980280452e-20
1.13829836597725e-10
1.235726333792195e-10
7.816607358768382e-28
0
2.134657395499244e-12
-1.452142239831975e-18
6.35580044500716e-12
-1.452144772258877e-18
1.04635548272766e-11
-1.452147256369173e-18
1.442463175331996e-11
0
1.820898796016375e-11
-1.452152087177599e-18
2.179039349688169e-11
1.4521544372762e-18
2.514549509588823e-11
2.904313488636692e-18
2.825419953712126e-11
0
3.110000328345138e-11
0
3.367038020074881e-11
0
3.59571155501781e-11
0
3.795666321283743e-11
1.452167698494108e-18
3.967047968233436e-11
0
4.110535079480294e-11
0
4.227364004506846e-11
0
4.319359789110868e-11
0
4.388952584592918e-11
-9.904215109632885e-28
4.439194637769624e-11
0
4.473765373418788e-11
0
4.496974879437262e-11
0
4.513751999303045e-11
0
4.529626906438444e-11
0
4.550701916249805e-11
7.260941666697029e-19
4.583611987999835e-11
0
4.635471431389816e-11
-7.761698293583138e-28
4.713814223712699e-11
9.382970194892506e-28
4.826518353526212e-11
0
4.98171985413576e-11
7.26097846750716e-19
5.187717398193183e-11
0
5.452861644855694e-11
3.630495384561016e-19
5.785434857627189e-11
3.630498163749566e-19
6.193513096552909e-11
-3.630500718526151e-19
6.684816212468999e-11
0
7.266534316624211e-11
-9.055481857265735e-29
7.945134501245725e-11
2.0171407828472e-28
8.726138662571579e-11
-1.81525429081287e-19
9.613868650806133e-11
1.815254949796242e-19
1.061115889220212e-10
4.573025359538804e-28
1.17190293678037e-10
1.281248723825069e-10
0
-1.452139619875344e-18
2.256265158250453e-12
0
6.71584475031699e-12
1.452144657421629e-18
1.10503154772401e-11
-1.452147101562426e-18
1.522222672530053e-11
1.452149498885343e-18
1.919770013774492e-11
2.273833139424579e-27
2.294704386889009e-11
0
2.644372301890412e-11
0
2.966477784946894e-11
0
3.259120714745749e-11
0
3.520836611113623e-11
0
3.750635697456421e-11
1.452165117668698e-18
3.948042689320563e-11
0
4.113133969116621e-11
0
4.246573453887971e-11
0
4.349647301400684e-11
-1.452173214845901e-18
4.424293388507347e-11
1.452175150127431e-18
4.473124545351082e-11
-7.260885229624906e-19
4.499448594856543e-11
0
4.507279824598338e-11
-7.260903598631214e-19
4.501339132041088e-11
7.26091247877332e-19
4.48705010374592e-11
6.960029954231839e-28
4.470519121105445e-11
0
4.458507769732557e-11
7.260937721880367e-19
4.458393196119182e-11
-1.59427678325566e-27
4.478113362089283e-11
0
4.526106635871498e-11
-7.260960629881014e-19
4.611234974069568e-11
0
4.742697809928938e-11
0
4.929935776658291e-11
0
5.182521071073706e-11
3.630493357220528e-19
5.510040411368527e-11
3.630496163589206e-19
5.921960278786046e-11
0
6.427479380504213e-11
0
7.035359330456428e-11
-3.630503234503172e-19
7.753733838530556e-11
1.815252562159952e-19
8.589882612829866e-11
-1.815253379794421e-19
9.549971136720814e-11
1.815254064645319e-19
1.063874194450267e-10
9.076273033614489e-20
1.185916378510302e-10
1.30742504742855e-10
0
0
2.368714292766411e-12
-1.452142088033338e-18
7.048278122295411e-12
0
1.159061209888115e-11
0
1.59537712448052e-11
0
2.009975749069077e-11
1.4521516138469e-18
2.399509181731659e-11
1.452153882665889e-18
2.760977307385198e-11
1.45215610807132e-18
3.091768748034177e-11
0
3.389705298135353e-11
0
3.653082294042394e-11
1.452162560602058e-18
3.88071551801748e-11
0
4.071983164977828e-11
-1.982159074055249e-27
4.226868099719858e-11
1.452168690141217e-18
4.346000259270608e-11
0
4.430694408499153e-11
1.452172604642386e-18
4.48298441051502e-11
0
4.505653866775084e-11
7.260881887784368e-19
4.50225935127161e-11
1.452178209640377e-18
4.477142898920524e-11
-7.26090002362841e-19
4.435439556642304e-11
1.137711015814361e-27
4.383072881794515e-11
7.260917368359652e-19
4.326736209541519e-11
-7.260925700185931e-19
4.27386738570747e-11
0
4.232606364371756e-11
7.260941687335215e-19
4.211742930924404e-11
7.260949327612452e-19
4.220651355912876e-11
3.311427896963202e-27
4.269215609973145e-11
-1.452192736950169e-18
4.367742526043356e-11
0
4.526866974816081e-11
0
4.757447601300835e-11
0
5.070452251208963e-11
0
5.476834394092795e-11
-3.630496840080404e-19
5.987393863413074e-11
0
6.612622930005781e-11
0
7.362522751967344e-11
-1.815251691253107e-19
8.246390636578849e-11
0
9.272558365216429e-11
0
1.044808317859228e-10
0
1.17783694950601e-10
1.311504782827015e-10
0
-1.452139542362562e-18
2.472539185546799e-12
0
7.354716789365803e-12
-1.452144419872599e-18
1.208712533717489e-11
0
1.662300020840519e-11
1.452149094747337e-18
2.091988527287003e-11
1.452151365976683e-18
2.494021229360385e-11
1.989774522043673e-27
2.865019730294981e-11
0
3.20202689825198e-11
0
3.502554641651039e-11
0
3.764630377576494e-11
-1.452162112376956e-18
3.986845387889138e-11
1.452164151059217e-18
4.168402885015844e-11
-1.452166159423071e-18
4.309166803714144e-11
0
4.409706672120602e-11
0
4.471343644507619e-11
0
4.496189999380269e-11
0
4.487184281212455e-11
-7.260878500102526e-19
4.448118019766658e-11
0
4.383655769595042e-11
0
4.299343241974296e-11
1.88601504628981e-27
4.201605998019398e-11
-7.260913565441375e-19
4.097732749074741e-11
0
3.995849218278715e-11
0
3.904874286002397e-11
0
3.834468293785584e-11
-7.260945338411249e-19
3.794964503461148e-11
-7.260952666811738e-19
3.797295619022146e-11
7.260959714694551e-19
3.852905932339321e-11
0
3.973658531595769e-11
3.630486471878177e-19
4.171737717686276e-11
-3.630489514185952e-19
4.459544885991822e-11
0
4.849586421398761e-11
0
5.354357527335885e-11
0
5.986206160542991e-11
3.630499724582395e-19
6.757176781117433e-11
-1.25307421948315e-27
7.678820412998781e-11
3.630503471195519e-19
8.761954605717003e-11
-8.898217640244364e-28
1.001635950211378e-10
9.076265494152763e-20
1.145040042793005e-10
1.290539177020019e-10
0
1.452139501235138e-18
2.568490591439392e-12
-6.879662502594255e-28
7.637408659796609e-12
0
1.254357847161557e-11
-1.452146611219186e-18
1.723508177174009e-11
0
2.16646747342244e-11
0
2.579037607793858e-11
0
2.957428357447557e-11
0
3.298305470567772e-11
0
3.598838877308789e-11
0
3.85675540237672e-11
0
4.070391187160917e-11
1.452163647601974e-18
4.23874382149413e-11
0
4.361527089158218e-11
0
4.439224116147619e-11
0
4.473137469370576e-11
-1.452171346303798e-18
4.465434172897673e-11
0
4.419188255597061e-11
0
4.338412698119951e-11
0
4.228083683617547e-11
7.26089272738389e-19
4.09415250524764e-11
-7.260901317186719e-19
3.943545711388581e-11
-7.260909728643903e-19
3.784150874699857e-11
3.68591293758716e-27
3.624787694604099e-11
-7.260925974608158e-19
3.475165740071694e-11
7.260933783896502e-19
3.345827961526189e-11
0
3.248080552610556e-11
-7.260948699357734e-19
3.193916712980607e-11
-7.260955833211693e-19
3.195928794039184e-11
-7.260962624599879e-19
3.267219282915986e-11
3.549988425585001e-27
3.42131033434607e-11
0
3.6720518503853e-11
3.630490536079907e-19
4.033532609634448e-11
-3.63049321133633e-19
4.519987185248182e-11
0
5.145698651759128e-11
0
5.924882268901192e-11
-1.819593534244247e-27
6.871539396622865e-11
1.692709859007071e-27
7.999258407106331e-11
-1.509753535909868e-27
9.320945022917717e-11
9.076262093320338e-20
1.084846247745636e-10
1.241442642135533e-10
9.076264063847047e-20
3.280340177777559e-28
2.657532729247835e-12
-2.904283670175468e-18
7.899226060539944e-12
-9.150654895350851e-28
1.296473451134808e-11
-1.452146431135813e-18
1.779665800929594e-11
-1.45214865653037e-18
2.23426237806485e-11
-1.452150837475523e-18
2.655589769963556e-11
-1.452152976745887e-18
3.039413254642856e-11
-2.904310153762324e-18
3.381987625505892e-11
0
3.680107435303281e-11
0
3.931165807637128e-11
0
4.133208456519805e-11
1.452163128248467e-18
4.284994530850257e-11
0
4.386056587733073e-11
0
4.436759694407833e-11
0
4.438358061631387e-11
2.904341379671075e-18
4.39304949877499e-11
0
4.304020865746653e-11
0
4.175489168471724e-11
0
4.012728859017731e-11
7.260888962332164e-19
3.822088390035423e-11
3.349529211029665e-27
3.610992102464018e-11
-7.260905809909186e-19
3.387926575495833e-11
-7.260913980209848e-19
3.162410276875963e-11
0
2.944948837100421e-11
-7.260929815617559e-19
2.746972026666003e-11
0
2.580761730085198e-11
0
2.459370626180174e-11
0
2.396530848700063e-11
7.260958628113163e-19
2.406568600650341e-11
3.630482632098764e-19
2.504319349482412e-11
3.630485707605138e-19
2.705055365467305e-11
4.73404814921725e-27
3.024418197325258e-11
-3.630491478462486e-19
3.478367121347963e-11
3.63049400768505e-19
4.083131075680037e-11
-3.6304963792154e-19
4.855151446107543e-11
1.815249265649476e-19
5.811005393228933e-11
2.331240898095015e-27
6.967279661748707e-11
-1.815251084357634e-19
8.340367426504814e-11
9.076258852978516e-20
9.946154485660722e-11
1.161081684301207e-10
0
-1.452139410769852e-18
2.74083965202607e-12
-5.936959918357174e-28
8.143685341490037e-12
2.904288035657036e-18
1.335643903412133e-11
-1.452146243773183e-18
1.831587904021925e-11
-1.226351941504772e-27
2.296416819471883e-11
-2.904301110897282e-18
2.724949860486237e-11
0
3.112473608121964e-11
0
3.454796614066327e-11
0
3.748304291464899e-11
0
3.990018452495321e-11
0
4.17766025852946e-11
-2.485011357826797e-28
4.309714695012446e-11
0
4.385497369770004e-11
0
4.405221456504917e-11
-1.4521681938375e-18
4.370062169720818e-11
0
4.28221789965481e-11
1.452171799006326e-18
4.144964885240728e-11
0
3.962703029046061e-11
0
3.740989804677743e-11
0
3.486560586673031e-11
7.260893539459714e-19
3.20733249867776e-11
7.260901822629038e-19
2.912390182508579e-11
5.421005292432896e-27
2.611952907242276e-11
0
2.317323599208138e-11
0
2.040820373727312e-11
0
1.795695505865598e-11
7.260940669203303e-19
1.596044236235745e-11
0
1.456709946436684e-11
0
1.393197466482512e-11
3.630480678869515e-19
1.421592771623702e-11
0
1.558506566831174e-11
5.663603252318311e-27
1.821041395872434e-11
0
2.226784380646992e-11
0
2.793825735923719e-11
0
3.540786577766252e-11
0
4.486842448154712e-11
3.630499044752517e-19
5.651706252371437e-11
-3.630500786358462e-19
7.055535757877897e-11
-1.371701723944402e-27
8.718720638416664e-11
1.04639707919265e-10
0
2.908876439753871e-28
2.819796698257887e-12
1.452141642692826e-18
8.374936710017093e-12
0
1.372559985555671e-11
0
1.880239286311887e-11
0
2.35417121309576e-11
1.452150257902547e-18
2.78863289393824e-11
-1.452152301481935e-18
3.178399612408642e-11
0
3.518798899837866e-11
0
3.805769637219371e-11
0
4.035926965762275e-11
0
4.206628722155603e-11
0
4.3160476097737e-11
0
4.363244676831152e-11
0
4.348244246610302e-11
0
4.272108049098781e-11
1.452169298832126e-18
4.137003979656438e-11
1.452171060468678e-18
3.946269412189492e-11
7.260863996972041e-19
3.704464710421574e-11
0
3.417413669864621e-11
-7.260881078946655e-19
3.092228204189698e-11
0
2.737312120772857e-11
0
2.362347978851152e-11
0
1.978258244847079e-11
0
1.59714539173933e-11
0
1.232214064500675e-11
0
8.976751664469602e-12
0
6.08641232787993e-12
0
3.810204245863205e-12
0
2.314192356148159e-12
0
1.77066981208815e-12
7.260963721856927e-19
2.357727424059931e-12
-3.630484897302494e-19
4.25923695999421e-12
3.630487869834579e-19
7.665373188536082e-12
3.630490598544626e-19
1.277359624974814e-11
3.630493135258285e-19
1.979006313233831e-11
-3.697915894730143e-27
2.893121921580811e-11
3.712548949953436e-27
4.042524605107176e-11
1.815249690442279e-19
5.451281356741527e-11
-9.076252714419926e-20
7.144656020748633e-11
8.945653787130097e-11
0
0
2.896012109895183e-12
0
8.597785287715897e-12
-1.452143710159065e-18
1.408018049526811e-11
0
1.926734971178726e-11
0
2.408959689474111e-11
-1.452149941332784e-18
2.848395883490668e-11
0
3.239273268966842e-11
1.009688835115277e-27
3.576403795960128e-11
0
3.855244381191167e-11
1.452157714023439e-18
4.071964359803397e-11
0
4.223518600466827e-11
-1.452161421578076e-18
4.307727009852647e-11
0
4.323356070194674e-11
0
4.270201320586707e-11
0
4.1491730331123e-11
-3.724242955834512e-27
3.962374410444032e-11
0
3.713174337848643e-11
3.061295739258892e-27
3.40626953471693e-11
7.260868458377362e-19
3.04773240242055e-11
-4.488997637918279e-27
2.645040647954159e-11
7.260885128138549e-19
2.207082438995325e-11
-7.260893220889535e-19
1.74414006736549e-11
-7.260901248046999e-19
1.267845441028922e-11
0
7.91108058116261e-12
-7.260916993684727e-19
3.280198919274107e-12
-7.260924510481247e-19
-1.06259400497327e-12
-7.260931944684362e-19
-4.956312829162288e-12
0
-8.231849662511396e-12
-1.244779279336213e-26
-1.071312200010694e-11
6.659918911382234e-27
-1.221792512735158e-11
0
-1.255826175506206e-11
0
-1.154006466133506e-11
0
-8.962064750647067e-12
0
-4.613820504041702e-12
-3.630491330220198e-19
1.727087549706081e-12
1.81524687832621e-19
1.029848315132639e-11
0
2.135721957115781e-11
-1.815249025150188e-19
3.518238592768034e-11
9.07624928264039e-20
5.207729371096747e-11
7.032076048650552e-11
0
2.77333911991762e-28
2.971290893046413e-12
-1.452141424234785e-18
8.817637380725066e-12
-7.531509541688337e-28
1.442918710717844e-11
0
1.972335340969666e-11
0
2.462405882981683e-11
1.452149607970521e-18
2.906230507689769e-11
0
3.297461198108342e-11
-1.452153454518711e-18
3.630360706063226e-11
0
3.899865502381497e-11
1.452157176423708e-18
4.101660489295903e-11
0
4.232257270631741e-11
6.261759978769942e-28
4.289079973147221e-11
-1.452162566761355e-18
4.270555642011142e-11
0
4.1762100818927e-11
0
4.006761592355986e-11
0
3.764210346939381e-11
0
3.451924940494737e-11
0
3.074713326109081e-11
0
2.638879956643262e-11
0
2.152258966128379e-11
7.260880611750134e-19
1.624224407275723e-11
0
1.065667888618984e-11
-7.260896608476366e-19
4.889457166749866e-12
0
-9.220895831427069e-13
-9.626839067923589e-27
-6.628038381022426e-12
0
-1.206733706606011e-11
0
-1.706940019817707e-11
0
-2.145574706808457e-11
0
-2.50414821513179e-11
-3.630474311757848e-19
-2.76363675112896e-11
-3.630477721595489e-19
-2.904524900150217e-11
-3.630480842886665e-19
-2.906751679665627e-11
0
-2.74954122009345e-11
0
-2.411094258284244e-11
-3.630489506467346e-19
-1.868140008035033e-11
1.815246016641515e-19
-1.095361404261989e-11
-1.815247177796911e-19
-6.474135090875356e-13
-1.815248282835032e-19
1.255100397423366e-11
9.076245837685888e-20
2.899468268613773e-11
4.706516581716729e-11
-9.076249243196241e-20
2.812740436696532e-28