/*--------------------------------*- C++ -*----------------------------------*\
| =========                 |                                                 |
| \\      /  F ield         | OpenFOAM: The Open Source CFD Toolbox           |
|  \\    /   O peration     | Version:  2206                                  |
|   \\  /    A nd           | Website:  www.openfoam.com                      |
|    \\/     M anipulation  |                                                 |
\*---------------------------------------------------------------------------*/
FoamFile
{
    version     2.0;
    format      ascii;
    arch        "LSB;label=32;scalar=64";
    class       surfaceScalarField;
    location    "2";
    object      meshPhiCN_0;
}
// * * * * * * * * * * * * * * * * * * * * * * * * * * * * * * * * * * * * * //

dimensions      [0 3 -1 0 0 0 0];

oriented        oriented;

internalField   nonuniform List<scalar> 
35915
(
6.862673677363879e-18
2.149482286375007e-13
-2.339928456919774e-18
6.41599912831598e-13
-1.988032875438643e-18
1.060725339120428e-12
-4.38755818376312e-18
1.470013497837445e-12
5.659423176379715e-18
1.867276642958101e-12
-9.165060802976947e-18
2.250857165861281e-12
-9.446600921593031e-19
2.619225992612624e-12
-2.98347350867876e-18
2.971180848966866e-12
1.867156978961628e-18
3.305728244634313e-12
1.842962237724765e-18
3.622197231090613e-12
1.002730300075173e-17
3.920285538961841e-12
2.295810331798333e-18
4.20001394464992e-12
7.135221056771505e-19
4.461723450726961e-12
-1.241171265830423e-17
4.70625391063692e-12
1.829751684482743e-18
4.934739007456555e-12
1.392488258722068e-18
5.148777043185482e-12
4.690658244750775e-18
5.350388730988173e-12
-2.04446313706238e-18
5.542007741202728e-12
1.752489194453929e-18
5.726433760943347e-12
-3.096794505152057e-19
5.906954020853089e-12
-5.532732359984552e-18
6.087132220001421e-12
4.765072481182808e-18
6.270939747478797e-12
1.652096916348478e-18
6.462648356653634e-12
-4.736195659610387e-19
6.666700707721324e-12
2.289370184692325e-19
6.88776033676198e-12
-1.356804052568195e-18
7.130578828980015e-12
1.147866182037059e-18
7.399932187659646e-12
4.636659024353448e-18
7.700457884205233e-12
9.978419749651672e-19
8.036555947450325e-12
-1.068486973655488e-19
8.412341093034961e-12
-8.301461363598091e-19
8.831253167355372e-12
7.951539564506435e-19
9.296242112764155e-12
9.888623243529602e-19
9.809382800992877e-12
1.304624526491234e-18
1.037162567063014e-11
-1.184203142959473e-18
1.098281661025473e-11
6.854178421002343e-19
1.164143669123638e-11
6.314129127903005e-19
1.234429553129029e-11
6.329888178815231e-19
1.308649928017826e-11
-7.19223175184374e-19
1.386132457944168e-11
1.457970961442989e-11
-1.159780727664595e-19
1.010703537592107e-17
4.266579898981623e-13
1.623600876020779e-18
1.273351868470822e-12
-1.055705837516145e-18
2.10451025327738e-12
-4.680368102518991e-18
2.915597859094364e-12
-5.846797559225721e-18
3.702456807748211e-12
-4.016232341393065e-18
4.461680270138963e-12
-3.636322366688078e-18
5.190226358027555e-12
1.180828038467715e-18
5.885639006972335e-12
-8.254358847732522e-20
6.546046234099626e-12
-1.682091881290588e-19
7.170094745335186e-12
6.198163749183511e-18
7.757133832945131e-12
-2.406085029494741e-18
8.307249399357896e-12
3.746298080372291e-18
8.821131487726639e-12
8.104820537013251e-18
9.300340527156153e-12
2.055941615104623e-18
9.747254219170542e-12
-1.518574129109375e-18
1.016507662017561e-11
-1.896214184599177e-18
1.055773909217609e-11
-4.901026258529402e-21
1.093012687876034e-11
-8.685118697263555e-19
1.128791688361441e-11
1.201966033908327e-18
1.163756195385563e-11
2.400294485562222e-18
1.198624820963037e-11
-9.203653820389809e-19
1.234190981561592e-11
-2.630284251312838e-19
1.27129711827267e-11
3.293642134417639e-18
1.310844778614794e-11
5.358069787699919e-18
1.353760105381462e-11
-1.66533955273736e-18
1.400996684235905e-11
8.673845812057547e-18
1.453511842372263e-11
7.780174798959844e-19
1.512231584674627e-11
-1.615313166738384e-18
1.578047559012317e-11
8.596091609179601e-20
1.651779475692826e-11
2.933295866093288e-18
1.734144073579303e-11
-2.642660936531667e-18
1.825737293557113e-11
-2.116825637981092e-18
1.926980265919454e-11
-8.430461301591311e-21
2.038103361774534e-11
1.050681482251573e-18
2.159097052616032e-11
-5.272254342195792e-19
2.28967961838783e-11
-1.017984980292845e-18
2.429256883032404e-11
2.104278053492073e-19
2.576880042288763e-11
1.182871408379114e-18
2.731231294435428e-11
2.874579964980382e-11
5.372143576324707e-19
1.705156605565938e-18
6.340299689026507e-13
-4.401793448668161e-18
1.891847194253049e-12
-7.166226197137207e-18
3.125707358187624e-12
-6.94419547373706e-18
4.328851981648523e-12
-2.694958454363316e-19
5.495163364465496e-12
1.665316213212286e-18
6.619445085183242e-12
6.325147903818516e-18
7.697279142077674e-12
-2.767473044330602e-18
8.724923014628894e-12
1.32189080313478e-18
9.699474129083248e-12
-1.472847846423018e-18
1.061892296445548e-11
1.526476005655087e-18
1.148230128683363e-11
-7.479184567257893e-18
1.22896528975468e-11
9.12934194551544e-19
1.304209907046145e-11
1.080519279441157e-17
1.374191673385088e-11
4.690185149691265e-18
1.439270971005174e-11
-4.624617894404392e-18
1.499911033392747e-11
6.50340249048543e-18
1.556720538985121e-11
1.655590316884715e-18
1.610424933103229e-11
4.293403425620926e-19
1.66187827256658e-11
-7.078014519685659e-18
1.712044559904813e-11
6.737342646426056e-19
1.762009389007173e-11
2.747081975208865e-18
1.812963164471747e-11
-6.980586601610957e-19
1.86618228868926e-11
6.647169087600829e-19
1.923013969435012e-11
8.271499018275954e-19
1.984868278536379e-11
2.124189502297265e-18
2.053185596141914e-11
-2.827844437060421e-18
2.129410662075559e-11
7.84084930966582e-19
2.214960737913166e-11
-2.803571460454275e-18
2.311189867859497e-11
-1.008629148160686e-19
2.419360220545223e-11
-2.605089796081015e-18
2.540583042151844e-11
-6.108726285135023e-19
2.675788754817587e-11
6.198421728751093e-19
2.825662538325655e-11
2.382041586592959e-19
2.990605290534875e-11
-2.235415047764089e-18
3.170662338028389e-11
-1.301942990865779e-18
3.365484222012567e-11
-4.747069530280559e-19
3.574251525010707e-11
-2.467594980605267e-19
3.795629869044525e-11
-3.889045443342835e-20
4.027716453731729e-11
4.243854826474767e-11
-1.823662423094416e-19
5.089877957147121e-18
8.35854446809613e-13
1.840502829267796e-19
2.493536052612367e-12
-7.076761194866368e-18
4.118522752049714e-12
1.113809358135611e-17
5.701739002381839e-12
2.019118150443136e-18
7.235065569522923e-12
-4.407219281232714e-18
8.711601062850081e-12
6.513098224590813e-19
1.012529418565046e-11
6.01973097843145e-18
1.147111368994906e-11
-1.364040820526938e-17
1.27452223217279e-11
6.498895305788393e-18
1.394485847067256e-11
2.125520962415993e-18
1.506864894660938e-11
-1.172377805073995e-17
1.611659331379389e-11
6.201231120377238e-18
1.709018070764537e-11
4.129304264469198e-18
1.799245338112794e-11
5.168075663974547e-21
1.882808176128732e-11
2.660874637634588e-18
1.960339444669223e-11
-2.193614324154235e-18
2.03264100776968e-11
-1.655873829303601e-18
2.100687008018526e-11
5.054611098602861e-19
2.165612880029872e-11
-2.547613342511775e-18
2.228718698537743e-11
-7.931955507934216e-19
2.291463143366479e-11
-1.278824711802038e-18
2.355435206056055e-11
2.849763509614118e-18
2.422357158631855e-11
-2.217951791903582e-18
2.494048577578551e-11
8.363046101698514e-19
2.5724109019471e-11
1.604498807818569e-18
2.659391397637314e-11
-4.563836179089819e-18
2.756952493119735e-11
7.245657022515423e-20
2.867030690263666e-11
6.414986020400068e-18
2.991485025949033e-11
3.590144571892089e-19
3.132053857385024e-11
1.364249700075224e-18
3.290295973874122e-11
-9.14539837845733e-20
3.467522498374319e-11
4.088611361762708e-19
3.664749575228785e-11
7.395782824234372e-19
3.882602978580606e-11
-8.819779964654885e-19
4.121269128344848e-11
-2.166190979823623e-19
4.380402085221209e-11
-8.376723922948343e-19
4.659055161058815e-11
-6.103187760650042e-19
4.955586146066922e-11
-6.456307651391286e-19
5.267609263542083e-11
5.559294558004716e-11
-4.703101547011194e-20
9.816254933675791e-19
1.03120954723475e-12
-8.535793130607199e-19
3.07560549625263e-12
1.485568973356623e-17
5.078259347244944e-12
4.807707398373776e-18
7.027713561495693e-12
-5.564403878748043e-18
8.913735398839995e-12
1.098197820077192e-17
1.072752944297467e-11
9.817172116319989e-18
1.246148877984957e-11
4.301907231339509e-18
1.410926974861676e-11
2.770067235085282e-18
1.566580689684313e-11
-4.310622317632951e-18
1.712764400484659e-11
8.129461554455782e-18
1.849295703645826e-11
-1.663079560199983e-17
1.976166726178696e-11
-6.848017554104437e-18
2.093555176135847e-11
4.99837836507322e-18
2.201838919577101e-11
5.784783380466538e-19
2.301594860060363e-11
-4.013040078115876e-18
2.393616634664035e-11
-9.559884005682783e-19
2.478907846769163e-11
3.757646361882591e-18
2.558688415101904e-11
-1.440860534781725e-18
2.634390079366044e-11
-4.539282767469188e-18
2.707651235367074e-11
-1.773791707199422e-18
2.780308796172992e-11
1.115905866872758e-19
2.854374079211167e-11
-3.157468366029175e-18
2.932028000378625e-11
3.729413794229505e-19
3.015581934659947e-11
-2.140605834105645e-18
3.107456630210006e-11
8.483651441041094e-19
3.210141205456243e-11
-3.645053844810218e-18
3.326147862075368e-11
-1.093580283143852e-18
3.457972070996103e-11
6.964564181706054e-18
3.608026675083994e-11
-1.174255806284501e-19
3.778581841729775e-11
-4.428025295031577e-18
3.971698224033382e-11
1.083252916347112e-18
4.189158914936225e-11
1.64424382126874e-18
4.432371174893981e-11
2.392953785478359e-19
4.702290608308603e-11
-1.004666602445428e-18
4.999326993929714e-11
-7.113238320336274e-19
5.323253808416462e-11
1.325424546603497e-18
5.673086230885796e-11
-8.017458155497278e-22
6.047013354400494e-11
1.545514066846242e-19
6.44227118843109e-11
6.813511911351795e-11
2.469548053524145e-19
5.137970051867849e-18
1.219188275395406e-12
1.090756016706852e-19
3.635519456718839e-12
3.539447734578193e-18
6.000776495335536e-12
-3.328211597116254e-18
8.300954622326076e-12
4.187648732904546e-18
1.052354197316902e-11
5.86664123281929e-18
1.26578349779371e-11
-2.384945717944667e-18
1.469452492331012e-11
6.10111151483213e-18
1.662572392592001e-11
-5.021194203055283e-19
1.844526577327186e-11
-7.640279884151111e-18
2.014881560005715e-11
4.790381565843546e-18
2.173404614630322e-11
1.735349492294374e-18
2.32006781852169e-11
-1.962350819572299e-19
2.45507213071668e-11
1.376893322242841e-18
2.578870592814826e-11
-1.51288221844399e-19
2.692152248421274e-11
-5.334622051571972e-18
2.79586025560929e-11
1.479503155019354e-18
2.891204199595803e-11
2.832703358057969e-18
2.979658508087751e-11
-1.662338822884187e-18
3.062952004981898e-11
-2.123264424199314e-18
3.143073534259556e-11
2.131943014587691e-18
3.222250052627071e-11
1.095898942527678e-18
3.302935821730827e-11
-2.37555531843655e-19
3.387789508149614e-11
-5.842650668560538e-18
3.479643489516847e-11
-5.058530137419334e-18
3.581464575404094e-11
5.372709603027601e-18
3.696324880065743e-11
1.991595106571231e-18
3.827335562751364e-11
-1.965503726131684e-18
3.977597049064176e-11
-3.894447131684814e-18
4.15013376482411e-11
5.633414350842156e-19
4.347824380253382e-11
-3.342294541149516e-18
4.573311132731909e-11
2.338159224506869e-19
4.828918757122833e-11
4.075497571072742e-19
5.116558459984415e-11
1.470470092051689e-18
5.43761787286255e-11
-1.451655997021552e-18
5.792854005250388e-11
5.232968249531583e-19
6.182272265997304e-11
-1.031547795470699e-18
6.605011849044161e-11
-3.680009888601376e-19
7.059209177124353e-11
-7.692784313216932e-19
7.54188394928137e-11
7.997717833035973e-11
-4.90937545398064e-19
-1.265492471436595e-18
1.399097853720742e-12
8.006015274638577e-18
4.171150055590606e-12
-4.286288054738205e-18
6.88243460256043e-12
7.34571019631868e-18
9.516218555749609e-12
-5.082399263725006e-19
1.20577011743704e-11
2.536688280591603e-18
1.449405968674221e-11
-6.599051852509361e-18
1.681412627712551e-11
-3.275180367121639e-18
1.900839163622397e-11
-2.239131579120502e-18
2.106943469452498e-11
9.690847625363613e-18
2.299191624905633e-11
-8.419497245890154e-19
2.47728748940232e-11
-1.520445623215659e-17
2.641183371099917e-11
-1.035075371398011e-17
2.791101588510144e-11
-1.143304561048565e-18
2.927549633408955e-11
-2.012073222648338e-18
3.051323853490126e-11
-2.414769000497843e-18
3.16352990026812e-11
7.426889164427327e-18
3.265580990747337e-11
4.91258026770598e-18
3.359199898740349e-11
4.142180757773505e-18
3.446431675093397e-11
-6.971002542992103e-18
3.529620601408834e-11
2.716552336997861e-18
3.611402799528825e-11
-3.569449957003414e-18
3.694690508368953e-11
-1.168478716575001e-18
3.782650291451023e-11
2.103031558133563e-18
3.878661224992663e-11
-3.069650472651917e-18
3.986283504144795e-11
8.09236307963229e-19
4.109205101779704e-11
2.431744307213179e-18
4.251188642335391e-11
-2.077232085582643e-18
4.416004555801349e-11
1.491405068230917e-18
4.607362995450164e-11
9.620236022522461e-19
4.828815828591413e-11
6.871463488062263e-19
5.083685484804377e-11
3.240401825329942e-18
5.374945100648154e-11
-1.331413622157815e-18
5.70511883290351e-11
-1.908330925675345e-18
6.076153141138426e-11
1.589054114013234e-18
6.489290701153227e-11
-8.467922120216544e-19
6.944931291501813e-11
1.547896681093463e-19
7.442491268993777e-11
7.555172032938078e-19
7.980236618723486e-11
-6.209827108169792e-19
8.55514247542949e-11
9.101401911584593e-11
2.125387782635343e-19
-6.814382442734256e-18
1.570366102367985e-12
-7.111758177708875e-18
4.680630246048126e-12
1.817952558939421e-18
7.720097055463079e-12
-3.516847082002017e-18
1.066925499527141e-11
5.345542669089514e-18
1.351065705419846e-11
-3.680227647817875e-18
1.622920990898671e-11
1.426973163667467e-18
1.881175711845721e-11
4.488046122530878e-18
2.124703446739268e-11
-1.958703965536985e-18
2.352615388752512e-11
-2.104906912737197e-18
2.56427312650452e-11
-6.738040175776879e-18
2.75930118644242e-11
-6.709854966840782e-18
2.93762202526504e-11
-1.12173977457859e-17
3.09946789549513e-11
1.686894578604305e-18
3.245394674922948e-11
-2.848954611051017e-18
3.376305905741322e-11
-7.546291151057017e-18
3.493460315417416e-11
3.629339721578523e-18
3.598471331308628e-11
4.79689818209808e-18
3.693328527725307e-11
2.347069753302587e-18
3.7803881298687e-11
-1.097962792567089e-18
3.862369674040058e-11
-1.176270705650695e-18
3.942327598215016e-11
-4.908405118007671e-19
4.023663406536354e-11
3.42757282097044e-18
4.110073032972284e-11
-1.76511393463421e-18
4.205515156017507e-11
-1.724158214483685e-18
4.314184181065596e-11
3.492598697252194e-20
4.440435557524218e-11
1.440328289025798e-18
4.588737096935449e-11
-1.509516054920266e-18
4.763601058122686e-11
-3.643100903912345e-18
4.96948986066335e-11
-2.244483627879326e-18
5.210728616265923e-11
2.752959936283145e-18
5.491414760133838e-11
-9.614406322353838e-19
5.815287528737765e-11
6.633321421010996e-19
6.185609167853854e-11
-2.129085839246678e-19
6.605030421442466e-11
1.652435007772141e-18
7.075444215876976e-11
1.690441796245032e-19
7.597822067857799e-11
1.197472368039408e-18
8.172040073616342e-11
4.762400138735793e-19
8.796712115794301e-11
-1.780508481912553e-20
9.468986668360509e-11
1.011203258360243e-10
-2.308399179429058e-19
-1.64313235863511e-18
1.732440284267034e-12
-1.091987551441162e-18
5.162516183593643e-12
4.329049273637869e-18
8.511421297906094e-12
-4.13791232873272e-18
1.175660490058853e-11
9.611627072255329e-18
1.48778031776006e-11
-2.090892458795064e-18
1.785756498787271e-11
-1.406504641990675e-18
2.068040525924054e-11
1.773827262974065e-17
2.333322261977807e-11
1.086835590731134e-18
2.580547051056428e-11
-2.281263163425474e-18
2.808952568578687e-11
-5.155993802246049e-18
3.018075329789064e-11
-6.842870588600555e-18
3.207791103192643e-11
-2.586845428009466e-18
3.378325681782199e-11
1.276360622455983e-17
3.530285786947923e-11
-3.576608860074687e-18
3.664668021579475e-11
4.513024335937961e-18
3.782883067821091e-11
-2.073811431486971e-18
3.88674657813244e-11
-2.326597918608153e-19
3.978514185224089e-11
2.166363288758976e-18
4.060865252677873e-11
-8.077171668270933e-18
4.136890687498904e-11
2.160180700062391e-19
4.210103084230941e-11
-6.922234541186486e-18
4.284398583942175e-11
-6.533099924906804e-18
4.364031525578187e-11
-1.981735746781631e-18
4.453587063918819e-11
2.35931634484632e-18
4.557925344323934e-11
-4.652986220566325e-18
4.682125743234793e-11
-9.323470082886378e-19
4.831425954478551e-11
-4.590907065765813e-18
5.011138248690578e-11
-1.138587848482281e-18
5.226570289985981e-11
-4.231750302819546e-19
5.482915684402669e-11
-3.779105391272182e-18
5.785146429528984e-11
5.720651267276636e-19
6.137897218053522e-11
-1.170739732634546e-18
6.545313693739726e-11
-1.374775059672e-19
7.010911561701621e-11
3.791696484397279e-18
7.537411397149677e-11
1.971468136856488e-19
8.126559156924273e-11
-1.076778656235864e-18
8.778915951987299e-11
8.658998622131266e-19
9.493672219202642e-11
-3.293796750682884e-19
1.026841762534489e-10
1.101478504363646e-10
1.202654430852842e-19
-9.779584052534796e-19
1.885025251866932e-12
8.322738975610731e-18
5.615760717554006e-12
7.583880619301496e-18
9.254680633249565e-12
1.074097878629367e-17
1.277587861383454e-11
-2.699548169574149e-18
1.615607672028286e-11
4.498196201264288e-18
1.937508467441861e-11
-2.725201543221744e-18
2.24150808823957e-11
1.454595994463865e-18
2.526077471190696e-11
-4.01809399002202e-18
2.789990632742557e-11
6.603161890114164e-19
3.032333969816824e-11
-1.986639216956256e-18
3.252540773076341e-11
2.914626310117712e-18
3.45042821492849e-11
-9.269782484356767e-19
3.626204330604965e-11
-8.400537414114688e-19
3.780508215446638e-11
-2.463822134324525e-19
3.914421827417897e-11
-4.538704651289333e-18
4.029504104782736e-11
3.949905317902467e-18
4.127773597094406e-11
1.635204434439881e-18
4.211747386407057e-11
-5.562825174392468e-20
4.284430610454245e-11
-4.199536011543516e-19
4.349314546502494e-11
-2.728110304625345e-18
4.410365180869499e-11
-9.395529398892272e-19
4.472005034146743e-11
-2.619036231194728e-18
4.539082341012246e-11
-1.32656339246262e-19
4.616829323681544e-11
8.072340657789162e-19
4.71082447676332e-11
-3.998039419203562e-19
4.826922262906768e-11
-5.958808776266245e-18
4.971188746553323e-11
-1.99738048644506e-18
5.14981541015245e-11
-2.265000904712126e-18
5.369026391809318e-11
4.673825583132635e-19
5.634994062707947e-11
-2.515529242783065e-18
5.953674429623441e-11
1.550833007421157e-18
6.330727181247478e-11
1.635335049014088e-20
6.77133306531885e-11
4.897345065287544e-19
7.280045978684705e-11
2.039692720034262e-18
7.860613405003356e-11
-4.394086315756773e-19
8.515772294178345e-11
-8.624260772074547e-19
9.247038281102718e-11
-4.637431736775223e-19
1.005444879438963e-10
1.163331626843074e-19
1.093632959269809e-10
1.179235779383056e-10
3.689740872438007e-19
2.708144481952669e-18
2.027931438324172e-12
3.10926931751867e-18
6.039864094685325e-12
-3.748571243231137e-18
9.948933828707442e-12
-4.666580791684832e-18
1.372567270619794e-11
-5.451533438652106e-18
1.73434801799471e-11
3.206274838354087e-18
2.077928774592823e-11
-1.357997350264738e-17
2.401259980456262e-11
-3.565086090832113e-18
2.702582642610262e-11
3.488785720264454e-18
2.980460685493279e-11
-8.260780787609061e-18
3.233820447815645e-11
6.693394281361569e-18
3.461971886233915e-11
-8.21965417246442e-18
3.664645682394482e-11
-5.753714198827706e-18
3.842026450579304e-11
-2.891190332577726e-18
3.994772386986577e-11
-1.884818803422897e-18
4.124043977338781e-11
2.975170613980342e-18
4.231524322394392e-11
-6.402616750439647e-18
4.319441014949752e-11
-1.540319927203662e-19
4.390571235020257e-11
-2.5304641037308e-18
4.448252709555556e-11
-8.336291966704096e-19
4.496381564569897e-11
-6.549785266617996e-18
4.539395270274352e-11
2.807659935095579e-18
4.582259802665439e-11
-7.518200755779783e-18
4.630443993833597e-11
2.136566714067072e-19
4.689868742253841e-11
7.931660104570697e-19
4.766864307787918e-11
-3.266222133104011e-19
4.86811528915564e-11
-7.251119252720667e-18
5.000573883352929e-11
-1.27699323427217e-18
5.171380276968618e-11
-3.751415811542298e-18
5.387776872259768e-11
-2.926488583559006e-18
5.656974553484006e-11
-1.033527758333048e-18
5.986057961460298e-11
1.036793923757968e-18
6.381835005018049e-11
9.365614524118139e-19
6.850679172071844e-11
4.514129463853962e-19
7.398368096246959e-11
1.586105022718416e-20
8.029882586762636e-11
-8.874607515639327e-19
8.74920330598958e-11
-8.050394907971083e-20
9.559059203606349e-11
-1.286094561034731e-19
1.046067000473295e-10
3.083432016763301e-19
1.14534418833755e-10
1.242480843659141e-10
-1.926201588987524e-19
4.394502647910207e-18
2.161108724689685e-12
1.250304776035155e-17
6.434761332463566e-12
3.833901813600764e-18
1.059408796109288e-11
-2.586486769607748e-18
1.460579022234273e-11
1.512108775442045e-19
1.843975444577138e-11
-4.432166509716224e-18
2.206968365051217e-11
-5.797940323081228e-18
2.547214665349608e-11
-6.602962534138058e-18
2.862699478831857e-11
7.096298055000061e-19
3.151760341578947e-11
6.038850135723922e-18
3.413135559274525e-11
-2.539700900087501e-18
3.645988936516033e-11
1.06019834371181e-18
3.849954311954494e-11
-1.163223874577156e-18
4.025161569093249e-11
3.733398425855874e-18
4.172274354649412e-11
6.360374887931891e-19
4.292517087429344e-11
3.924645316488151e-18
4.387699338786265e-11
-9.003474688129217e-18
4.460236114191117e-11
-2.178493706731615e-18
4.513165219345422e-11
2.456740317343759e-20
4.550162574844506e-11
-2.631284439632274e-19
4.575530798664314e-11
1.856856596465585e-18
4.594190337514068e-11
9.650824139677896e-19
4.611679154157972e-11
-4.276051436891388e-19
4.634101391468966e-11
-7.745656936204647e-19
4.668100876680955e-11
3.3037271314866e-19
4.720802316091126e-11
-9.306941373841861e-19
4.799762255690328e-11
-1.386536416663792e-18
4.912875881278204e-11
2.746468741222346e-18
5.068301937582036e-11
1.113211949564089e-18
5.274366933514325e-11
2.740493801761703e-18
5.539439676280557e-11
-1.09600517487597e-18
5.871818848669005e-11
-9.824435715024031e-20
6.279596804502506e-11
-1.091538371470491e-18
6.770498412437925e-11
-2.219565239776012e-18
7.351704639681831e-11
-1.251195555924536e-18
8.029653378224151e-11
-6.061794697417234e-19
8.809822645689852e-11
6.823991045383955e-19
9.696471777532848e-11
-1.835963489031962e-19
1.069233418678395e-10
2.76660769108887e-19
1.179831407972359e-10
1.28895141699396e-10
-4.63138584122383e-19
5.579811066227522e-18
2.284795888346322e-12
-1.071379700069555e-17
6.80090473476699e-12
-9.96027024587186e-18
1.119091865907873e-11
-9.991470948868768e-19
1.541728634131364e-11
-5.643568215486234e-18
1.944608861584415e-11
-2.129533019495315e-18
2.324757248583043e-11
2.171555902726791e-18
2.679509656223369e-11
3.672666721633295e-18
3.006564524425887e-11
-1.575169575423534e-18
3.30400521908496e-11
-3.298220559974228e-18
3.570358562793419e-11
-4.413034528237815e-18
3.804621243511087e-11
-1.04783924204265e-17
4.006298579906728e-11
1.955427323227573e-18
4.175452389263392e-11
2.603585004422476e-18
4.312732706033917e-11
8.479933158037192e-18
4.419404677778921e-11
5.393636499068982e-19
4.497389925427108e-11
1.396544458643749e-17
4.549292504640413e-11
-3.394167023531993e-18
4.578400977330577e-11
-1.990601175908842e-18
4.588721235714525e-11
1.915020358620232e-18
4.584971052335891e-11
-5.644166826744296e-18
4.572570801107975e-11
-2.663485625806321e-18
4.557630063974542e-11
-2.356839184022018e-18
4.546918462773751e-11
3.152364722987438e-18
4.547829010529949e-11
4.735993252217295e-18
4.568317909443951e-11
-1.280760310037098e-18
4.616849788689508e-11
4.622380725873744e-18
4.702319845006442e-11
4.580442830252244e-18
4.833955615732162e-11
-4.642763993630483e-18
5.021238226234337e-11
9.457020075304397e-20
5.273774451199154e-11
-5.964043443104869e-19
5.601188902356702e-11
-3.730898771985837e-19
6.012970234762756e-11
3.987086131998032e-19
6.518332746311533e-11
4.75488635900493e-19
7.126048086520343e-11
1.09845243086318e-18
7.844233205976514e-11
6.018102824330285e-19
8.680130858281625e-11
-6.628957655161236e-19
9.639840164741959e-11
-8.865231166061359e-19
1.0728008098913e-10
-3.475163483373077e-20
1.194746994689892e-10
1.316121649515895e-10
-6.701833213050256e-19
-1.925231620494053e-17
2.399260070722252e-12
4.444286493869534e-18
7.139317897632238e-12
-2.2627026689965e-18
1.174104542395736e-11
-7.891074475332976e-18
1.616246345670483e-11
1.273489380520765e-18
2.036542976669966e-11
1.444614713556753e-17
2.431644183931286e-11
5.121026488847554e-18
2.798535169989006e-11
-4.172267945840616e-18
3.134598886702016e-11
1.649536066100186e-18
3.437640707875961e-11
-1.012203853264245e-17
3.705942886423242e-11
3.344266656002761e-18
3.938304268855322e-11
-6.898921898791547e-18
4.134085503132367e-11
-5.148870962239189e-18
4.293253120952513e-11
-2.182630847740716e-17
4.416415162688317e-11
1.064536119598947e-19
4.504865943130964e-11
7.525370896345791e-18
4.56062520979557e-11
5.247412340414127e-18
4.586458485851656e-11
-3.748784181141595e-18
4.585907526918164e-11
-1.145735685480757e-18
4.563304037930777e-11
-1.947250573695113e-18
4.523778994832295e-11
-7.343383086812447e-18
4.473252937717153e-11
5.888334504272248e-19
4.418431672173027e-11
2.67340395012058e-18
4.366758713547696e-11
3.070287433017659e-19
4.326398220643719e-11
-6.682116894175887e-19
4.306164423432945e-11
-4.269461575152872e-18
4.315472016721966e-11
-3.43851251844499e-18
4.364244314393073e-11
4.409020620880838e-18
4.462836642818886e-11
-8.006139634647096e-18
4.621937507590287e-11
-1.287004487989669e-18
4.852458855030576e-11
-5.087700687556534e-19
5.165418131075735e-11
-3.859474992314837e-19
5.571816364309442e-11
-1.801883565722411e-18
6.082489143678286e-11
3.05393441330943e-19
6.707953146901113e-11
1.676078197114165e-19
7.458210705512533e-11
7.082025802418088e-19
8.342528702595626e-11
-2.564109381581539e-19
9.369190800125523e-11
1.837506069847772e-18
1.054515458096493e-10
8.2218697366185e-19
1.18756856429508e-10
1.321223187652586e-10
-5.402142751393998e-21
6.542857175705559e-18
2.50502809296167e-12
-1.546721228233835e-18
7.45162509427799e-12
-1.945793620393676e-18
1.224726245869446e-11
-2.001647785919441e-18
1.684504099854832e-11
-7.883287205467305e-18
2.120247748876589e-11
-8.345377814507423e-18
2.528191037398176e-11
8.217105241087798e-18
2.904941049902473e-11
-7.98913695723548e-18
3.247531220812924e-11
2.920718181705286e-18
3.553457446624545e-11
2.548695917130426e-18
3.820732488705119e-11
6.819751020953051e-18
4.047928004432339e-11
-4.110870980242538e-19
4.234226597203855e-11
-2.305965716621807e-19
4.37946682278473e-11
-1.985388427981234e-18
4.48420100602483e-11
-1.865441261759097e-19
4.549731172664572e-11
1.241322895337808e-18
4.578141924951797e-11
-6.210123506059467e-19
4.572355348100683e-11
6.094532306933529e-18
4.536150993323814e-11
2.626366132385383e-18
4.474178318901189e-11
3.042307608598683e-18
4.391979279739368e-11
-3.01574235141425e-18
4.295980501010049e-11
1.811907574609854e-19
4.193478445381393e-11
-1.718155755072413e-18
4.092612888963783e-11
6.243908543974731e-19
4.002340643123463e-11
-4.496821704810225e-18
3.932351285747158e-11
-3.201543269314994e-18
3.893027576326297e-11
7.908628135059218e-20
3.895356422693699e-11
8.966431366616701e-19
3.950848161670835e-11
-1.254298975284816e-18
4.071437387284495e-11
1.209524344830902e-18
4.269381081066786e-11
5.807629333695878e-19
4.557156527300199e-11
-5.821272730866068e-19
4.947343031710172e-11
-7.357500980473433e-19
5.452495858385788e-11
1.10264023309629e-20
6.085009593405041e-11
-1.278689335256382e-18
6.856954381360582e-11
2.062657290906487e-19
7.779871928636977e-11
-6.678246309583447e-19
8.864539957583549e-11
-3.509552951072007e-19
1.012064735949944e-10
2.712225573068062e-19
1.155642706787746e-10
1.301281062952612e-10
7.034671562441565e-20
-1.296581443030849e-18
2.602927298215951e-12
2.182044334743108e-18
7.740073406077491e-12
-3.833675134967588e-18
1.271314826468374e-11
9.202377581885961e-18
1.747017115242946e-11
1.92574518293701e-18
2.196377745628893e-11
-6.94731088680577e-18
2.615189368305581e-11
-7.890267344834456e-18
2.99965079546118e-11
6.361474071306159e-18
3.346410757866876e-11
-1.879023292172959e-19
3.65262374495402e-11
5.144180833327338e-19
3.915997446785247e-11
-5.132296307481736e-18
4.134847794588803e-11
-2.341596656046788e-18
4.308143062152164e-11
8.02151361377713e-18
4.435578701634204e-11
-8.060395211526815e-19
4.517614705109132e-11
4.864270649828788e-19
4.555522259838221e-11
-4.939038459108486e-18
4.551442677578702e-11
-3.959024309390082e-18
4.508432191393726e-11
-7.67034499091076e-19
4.430487853757688e-11
-1.13779505977773e-18
4.322572451124632e-11
-6.296661336124791e-19
4.190629060689983e-11
-9.371467318723313e-19
4.041586491773579e-11
-2.904642148652128e-18
3.883347799417361e-11
3.86317042005392e-19
3.724751607695373e-11
-1.203200412120483e-18
3.575540323239006e-11
2.494759778706373e-18
3.446306996572549e-11
1.630380503456249e-18
3.348420484826605e-11
1.296206799839882e-18
3.293939982936155e-11
-1.608504078890155e-18
3.295548861959971e-11
5.645318392180424e-20
3.366438841026619e-11
2.357491246956162e-19
3.520230669556046e-11
1.085616254581799e-18
3.770885664333348e-11
3.803408315531643e-18
4.132586286631409e-11
-8.741681586936381e-19
4.619659121297628e-11
9.157788258102721e-19
5.246473895039924e-11
-2.637156723520833e-18
6.027297533858781e-11
-8.47821997834388e-19
6.97614908878771e-11
-8.828730243695389e-19
8.106599405074476e-11
7.00140759505793e-19
9.431482093089947e-11
-5.197770302677235e-19
1.096252709507256e-10
1.253174653750367e-10
-4.32090560075949e-19
-4.892441058947898e-18
2.693858668961799e-12
1.034374729206687e-17
8.00749287611684e-12
-7.911540295073648e-18
1.314352550427361e-11
9.371924951940061e-18
1.804444212989622e-11
4.555256803957985e-18
2.26577638777115e-11
7.986035667275435e-18
2.6936684810114e-11
5.180841665623376e-18
3.083867219395681e-11
2.14332831345011e-17
3.432612379912231e-11
-4.284042908613424e-19
3.736679794019709e-11
4.407942910903693e-18
3.993437225196108e-11
5.310731621189894e-18
4.200907673815017e-11
-5.157676919580743e-18
4.357824091783966e-11
-6.639075170345001e-18
4.463689665764905e-11
3.486532339224373e-18
4.518839678008996e-11
-2.480133752164443e-19
4.524499628129306e-11
-5.071932596431475e-18