/*--------------------------------*- C++ -*----------------------------------*\
| =========                 |                                                 |
| \\      /  F ield         | OpenFOAM: The Open Source CFD Toolbox           |
|  \\    /   O peration     | Version:  2206                                  |
|   \\  /    A nd           | Website:  www.openfoam.com                      |
|    \\/     M anipulation  |                                                 |
\*---------------------------------------------------------------------------*/
FoamFile
{
    version     2.0;
    format      ascii;
    arch        "LSB;label=32;scalar=64";
    class       volScalarField;
    location    "2";
    object      p;
}
// * * * * * * * * * * * * * * * * * * * * * * * * * * * * * * * * * * * * * //

dimensions      [0 2 -2 0 0 0 0];

internalField   nonuniform List<scalar> 
18114
(
0.0009845336283828084
0.0007977150462180571
0.0006928313433556041
0.0006528621316285026
0.0006258049739141453
0.000597465800142926
0.0005702040438932807
0.0005461141906110501
0.0005243330395597471
0.0005035208520907789
0.0004831369657561489
0.000463214461714355
0.0004443111946872218
0.0004244575188846018
0.000403009984834505
0.0003822633298537383
0.0003627598831042228
0.0003444414599617896
0.0003274826495032965
0.0003120410469801044
0.0002981572593941144
0.0002858518001917785
0.0002751528498944531
0.0002660382461043401
0.0002584138353780695
0.0002521213449445581
0.0002469598937997708
0.0002427339187039449
0.0002392766808090467
0.000236415077662854
0.0002339740900230818
0.000231805433720563
0.0002297816111381314
0.0002278144183423902
0.0002258194601733429
0.0002237728306353958
0.0002216027854581353
0.0002193388463281308
0.0002167968910058589
0.0002143520870227965
0.0007808607670603778
0.0007326480337964601
0.0006790347886430151
0.0006443331520308172
0.0006181726773850275
0.0005929916991011723
0.0005688750874668052
0.0005466416249989586
0.000525992367452802
0.0005057986994801175
0.0004855553934242304
0.000465188252859474
0.0004441182336395871
0.0004225007986484649
0.0004010643243645625
0.0003808640723642656
0.0003621384526097017
0.0003447570936027781
0.0003286615484910531
0.0003140599768405783
0.0003008933706123158
0.0002890505170935013
0.0002786361058451575
0.0002696863467340731
0.0002621064349787635
0.0002557927047287472
0.0002505507585806811
0.0002462252015217472
0.0002426043301679254
0.0002395597301235963
0.0002368978178678763
0.0002345097860508357
0.0002322392138888322
0.000230066796827077
0.0002278464461350608
0.0002256248491040059
0.0002232425435553112
0.0002208618242338213
0.0002179072435241033
0.0002152036504770745
0.0007288750721387987
0.000702270983576609
0.0006630225395617466
0.0006299708773130757
0.0006046202761240157
0.0005817013910713349
0.0005589610148658883
0.0005374655972315488
0.0005181030131153978
0.0004988712519159968
0.0004794368067221833
0.0004600950184953069
0.0004407931139278189
0.0004216963093057752
0.0004031836060200451
0.0003855195775268147
0.0003688771738065434
0.0003531886955339372
0.0003381699688201195
0.0003239041041672101
0.0003106192055109381
0.0002985438073717194
0.0002878197589438208
0.0002784394553423332
0.0002703355318496034
0.0002633859652862564
0.0002574522263710859
0.0002523991375984087
0.0002480357872078216
0.0002442581577215539
0.0002408678917828142
0.0002377746428858734
0.0002348713189802881
0.0002321757508049808
0.0002295224456697612
0.0002269328553764994
0.0002241769537312778
0.0002215346064937194
0.0002181787540287994
0.0002151937694056185
0.0006682722694622569
0.0006555152512341638
0.0006321062068846045
0.0006080274329702221
0.0005869033639101575
0.0005675063242872446
0.000548035461139767
0.000529008004573943
0.0005108785436535539
0.0004930089271386026
0.0004752169069000236
0.0004574792385304007
0.0004399122446180907
0.0004222981252425001
0.0004050918561603041
0.0003882315590615744
0.0003722675021959402
0.0003576786118686023
0.0003435341536706025
0.0003299090364156749
0.0003172769868513524
0.0003057128034580546
0.0002952930756005989
0.0002860281457766249
0.0002779986840647364
0.0002709223754980138
0.0002647991181488553
0.0002594703486931322
0.0002546619591944847
0.00025025693472206
0.0002462128473459614
0.0002425343451266229
0.000239144224657075
0.0002359253441035172
0.0002328026886437821
0.0002297535892674428
0.0002266921012553665
0.0002236438765894684
0.000220320394821784
0.0002174080167318231
0.0006307472658446949
0.0006241614873927977
0.0006090935778339339
0.0005906650975068024
0.0005727162694338242
0.0005555805018250923
0.0005384291941818713
0.0005212007542174156
0.0005042758307713642
0.0004875966270589678
0.0004710568443920579
0.0004545582959602967
0.0004382024749063404
0.0004220007287334102
0.0004061502645978714
0.0003907281404231012
0.0003759646709784214
0.0003620273219392713
0.0003486791112205488
0.0003359385280818447
0.0003240667500260776
0.0003131260161996735
0.0003031075313427063
0.0002939994450827015
0.0002857900960182689
0.0002783308386317399
0.0002718027796637436
0.0002661673566076597
0.0002608719059490286
0.0002558843518246602
0.0002513071465285563
0.0002471858640948275
0.0002433580536862046
0.0002396410377939298
0.000236030454804299
0.0002325530989910857
0.0002291590233186971
0.000225806131635649
0.0002224058294135085
0.0002191651056211889
0.000600006859837428
0.0005956735686214963
0.0005851403219963689
0.0005711404882588876
0.0005564290342549324
0.0005417165846919154
0.0005267984744436379
0.0005115802144203394
0.0004963381842522993
0.0004811600048695786
0.0004660405890385954
0.0004509417733718037
0.0004359466845403839
0.0004211253282637178
0.0004065852473180372
0.000392399914239888
0.0003786772307075714
0.0003655312331008339
0.0003529578252679103
0.0003409967730475984
0.0003297149380561939
0.0003192202721547985
0.0003094685622492786
0.0003005292947533328
0.0002923212136690224
0.0002848812961028353
0.0002781351027623869
0.0002720127852596931
0.000266302821783575
0.0002609573272152734
0.000256038174174634
0.0002516534150542578
0.0002475373337594868
0.00024342653933026
0.0002394103320712941
0.0002355624843097624
0.0002317656847926491
0.000228021598343433
0.0002243799065038395
0.000220907898240463
0.0005750802896560977
0.0005721083549653219
0.0005646068401581176
0.0005539339548861755
0.0005419251197983362
0.0005293624720000561
0.0005163398057601384
0.0005028733092813368
0.0004891565875918979
0.0004753318429716732
0.0004614665047817044
0.00044758657911383
0.0004337613070996151
0.0004200654227221199
0.0004065844676080388
0.0003933978759226672
0.0003805924433661177
0.0003682562031086122
0.000356429226156803
0.0003451405900737365
0.0003344308583154626
0.0003243619882738687
0.000314945652356663
0.0003062038422007485
0.0002981163543391461
0.0002906590145492449
0.0002837606583770489
0.0002773842940296327
0.0002714531416483718
0.0002659065668649583
0.0002607499900205578
0.0002559141487497126
0.000251311342312975
0.0002468142951826007
0.0002424782461334735
0.0002382787726401679
0.0002342030822088731
0.0002301929198993735
0.0002263487251428916
0.0002224964995304183
0.0005542356056212855
0.0005520228723350986
0.0005463342840715973
0.00053791064904398
0.0005279875795338062
0.0005172388314353346
0.0005058654090586517
0.000493957368735665
0.0004816758419413233
0.0004691708937361048
0.0004565418690005909
0.0004438486986129297
0.0004311600889093108
0.0004185496280669218
0.0004060964505917596
0.0003938745033600572
0.0003819577677717688
0.000370411712942412
0.0003592845005298746
0.0003486099722288619
0.0003384280110976196
0.0003287788841947873
0.0003196835794916428
0.0003111472611827771
0.0003031604912162758
0.0002956959166415058
0.000288720852195727
0.0002822003821018946
0.0002760871215541307
0.0002703194119267621
0.0002648735007146814
0.000259694824011708
0.0002547556732309157
0.0002499856816466596
0.0002453773334129101
0.0002409034234370396
0.0002365585342999298
0.0002323019054435141
0.0002282011012767163
0.0002241146778581242
0.0005364228967214258
0.0005346845318899173
0.000530197548697439
0.0005234132900202497
0.000515170489777323
0.000505983708939898
0.0004960665590266099
0.0004855458571192274
0.0004745728860957556
0.0004632907577781384
0.0004518096043100343
0.0004402075727195974
0.0004285591697743386
0.0004169373359383239
0.0004054170216101942
0.0003940660322514416
0.0003829501303990529
0.0003721257407403167
0.0003616420682751758
0.0003515361872780607
0.0003418435797291033
0.0003325927990776443
0.0003238026125290552
0.0003154769144090833
0.0003076115771385673
0.0003001885067705776
0.0002931861218732099
0.0002865712971954486
0.0002803092564652509
0.000274355162738729
0.0002686839980234422
0.0002632604720687247
0.0002580571931259061
0.0002530262979690043
0.0002481467382083232
0.0002434005463543849
0.0002387853903847194
0.0002342734891430104
0.0002299232944254078
0.0002256230380774664
0.0005209971664210458
0.0005195880676462065
0.0005159434920376636
0.0005103598917883781
0.0005034264506261272
0.0004955251340032624
0.0004868474938009108
0.0004775298954529604
0.0004677168153169182
0.0004575408271557467
0.0004471118180072421
0.0004365145842199354
0.0004258266999980646
0.0004151190198804342
0.0004044621524212844
0.0003939186677662208
0.0003835489113352096
0.0003734039050991144
0.0003635301780400143
0.00035396314754579
0.0003447346760511259
0.0003358677437063713
0.0003273797094685613
0.0003192752231268933
0.0003115533376969789
0.0003042008067280338
0.0002972015324894816
0.0002905290817987773
0.0002841589314890668
0.0002780586578864698
0.0002722056820157271
0.0002665707472164523
0.0002611297660994689
0.0002558513095970734
0.0002507194367539298
0.0002457203032903292
0.0002408545667170844
0.0002360991473353642
0.0002315096439089342
0.0002269800494656021
0.0005075073096339644
0.0005063372271758345
0.0005033060184388944
0.0004986224702008954
0.0004927206159934138
0.0004858837154704287
0.0004782692178245449
0.0004700046310098181
0.0004612240743384165
0.0004520483406051342
0.0004425814821350021
0.0004329075502534357
0.0004231037612834129
0.0004132381717391339
0.0004033774631529648
0.0003935797274089441
0.0003839009107572213
0.0003743875737318257
0.0003650828587272485
0.0003560197061121861
0.0003472275636578282
0.0003387265848651415
0.0003305327704472311
0.0003226510978196429
0.0003150823915830349
0.0003078169535017648
0.0003008435168351158
0.0002941420551908748
0.000287694688994175
0.0002814765986887156
0.0002754691394433466
0.0002696488845699858
0.0002639985002332448
0.0002584967806761158
0.0002531330154945414
0.0002478960335123002
0.0002427896243290065
0.0002377938868055845
0.0002329658663382331
0.0002282076984622838
0.0004956241921128851
0.000494634484657462
0.0004920677484992059
0.0004880790123572695
0.0004830012624818977
0.0004770463410786826
0.0004703383409906659
0.0004629884509603085
0.0004551179607340132
0.0004468356898497603
0.0004382378883226175
0.0004294038526846738
0.0004204079644158109
0.0004113146109869301
0.0004021865718749398
0.0003930775166537923
0.0003840393142787414
0.0003751144848108568
0.000366342833198764
0.0003577546352368208
0.000349377018612628
0.0003412279943228767
0.0003333222077153925
0.0003256646921124352
0.0003182575087407825
0.0003110936625544777
0.0003041654996133686
0.0002974575620409354
0.0002909567729287995
0.0002846438879389784
0.0002785050649516312
0.000272522287914664
0.0002666840400204927
0.0002609754339910637
0.0002553906685951362
0.0002499224980693713
0.0002445788746198079
0.0002393434714541214
0.0002342758814293996
0.000229285995109756
0.0004850998728957672
0.0004842508100311622
0.0004820467174860167
0.0004786069592729343
0.0004741959538606907
0.0004689744523435762
0.0004630392383717741
0.0004564837937547169
0.0004494153913973625
0.0004419299524095437
0.0004341155376361175
0.0004260445626131893
0.0004177871499077971
0.0004094026155648886
0.0004009498118832118
0.0003924778247035421
0.0003840347867653299
0.0003756592693863026
0.0003673878031387765
0.0003592479732361636
0.0003512643170237835
0.0003434531842716722
0.0003358278895408654
0.0003283934112602839
0.0003211524364367064
0.0003140999051475375
0.0003072304476955353
0.0003005320064604667
0.0002939950922955199
0.000287604947152687
0.0002813518326813603
0.0002752224738324111
0.0002692098120191418
0.0002633043912411367
0.0002575049261458678
0.0002518086515235966
0.0002462284297142897
0.0002407514484999572
0.0002354407481501022
0.0002302148368892274
0.0004757414067456796
0.0004750046836435946
0.0004730907241526699
0.0004700936277842969
0.0004662295279545732
0.0004616229001504558
0.0004563488770788964
0.0004504841362810172
0.0004441224051645225
0.0004373470452679793
0.0004302371969398358
0.0004228572964416454
0.0004152729735960434
0.0004075377812525096
0.0003997065207857196
0.000391823660889217
0.0003839336188119167
0.000376071067215957
0.0003682692726100963
0.0003605535662630178
0.000352945052434822
0.0003454586509275983
0.0003381063681178015
0.0003308931368997589
0.0003238213222863577
0.0003168873275723335
0.0003100866514363444
0.0003034102408590287
0.0002968505000530092
0.0002903966934591578
0.0002840416022386463
0.0002777766455787942
0.0002715979389222391
0.0002655012327288422
0.000259489766767564
0.000253563902771625
0.0002477428886851921
0.000242017649775597
0.0002364550661421103
0.0002309827036589692
0.0004673947352859274
0.0004667497386944628
0.000465072260236607
0.0004624389845203547
0.0004590295292788918
0.0004549423557512362
0.0004502354119853514
0.00044497432826901
0.0004392368590313821
0.0004330944141323379
0.0004266155629940513
0.0004198617590571952
0.0004128909322556744
0.0004057513459720325
0.0003984924709708874
0.0003911558443239799
0.0003837802074630188
0.0003763982110884393
0.0003690389398601088
0.0003617250282472972
0.000354475062435315
0.0003473016426926512
0.0003402156315561161
0.000333220881245051
0.0003263202532075581
0.0003195102764935494
0.0003127860634672027
0.0003061411133159709
0.0002995683593295911
0.0002930604651561386
0.000286611888701726
0.0002802176346534985
0.0002738768474982908
0.0002675894019223701
0.0002613632061514668
0.0002552013020281826
0.0002491301442163576
0.0002431446692184457
0.0002373163415364545
0.0002315827002518525
0.0004599344396725994
0.0004593655380911942
0.0004578842437384978
0.0004555548094472837
0.000452527370559694
0.0004488825983965951
0.0004446681561572798
0.0004399362321427542
0.0004347483866764912
0.0004291692855287286
0.000423259474839967
0.0004170731290199611
0.0004106604390214256
0.0004040678045805875
0.0003973369426477573
0.0003905066623567244
0.0003836121775740554
0.000376682135053586
0.0003697409695909687
0.0003628090221691749
0.0003559020953549243
0.0003490318481261834
0.0003422053418466674
0.0003354267646544717
0.0003286986334862816
0.0003220161394361275
0.0003153747723001181
0.0003087687165010732
0.0003021907083570831
0.0002956356101163456
0.0002890987210494347
0.000282578252707271
0.000276075534234584
0.0002695929374862787
0.0002631443437873657
0.0002567351504954589
0.0002503991604240231
0.0002441357436415659
0.0002380218116899604
0.0002320057179987355
0.0004532565581417719
0.0004527516332584352
0.0004514358293298323
0.0004493630325331364
0.0004466607600650819
0.0004433984609713626
0.0004396132038694436
0.0004353435907843824
0.0004306427668548661
0.0004255677800868136
0.0004201707680832583
0.0004144992365793826
0.0004085976166977477
0.0004025069332032526
0.0003962652144912052
0.0003899071881835389
0.0003834626265847745
0.0003769568299514723
0.0003704114730980205
0.0003638441501831925
0.0003572680063827665
0.00035069222770923
0.000344122110687355
0.0003375599870916014
0.0003310048240317603
0.00032445319221954
0.0003178999645180703
0.0003113384420017527
0.0003047611571792439
0.0002981637557531312
0.0002915415820297571
0.0002848942013829403
0.0002782259990805524
0.0002715404683147028
0.0002648572265682883
0.0002581838667073267
0.0002515620911679792
0.0002449963565370415
0.0002385700783129011
0.0002322434990903408
0.0004472736004723391
0.0004468232405040575
0.0004456487663272615
0.0004437954330171997
0.0004413737584016418
0.0004384441777171762
0.0004350331562990807
0.0004311713749641386
0.0004269047698680122
0.0004222822770087527
0.0004173488727279751
0.0004121459596353429
0.0004067125518588967
0.0004010852536018479
0.0003952975696177845
0.0003893794215030231
0.0003833569620733859
0.0003772525377415195
0.0003710845728623352
0.0003648674394231351
0.0003586115275184123
0.0003523235028294492
0.0003460064720644253
0.0003396603647607618
0.0003332822492056042
0.0003268670407445001
0.0003204075310336904
0.0003138966120722633
0.0003073252427619566
0.000300688655127336
0.0002939821835404705
0.0002872046002079205
0.0002803634330025106
0.0002734632434687583
0.0002665285723296933
0.0002595686836528719
0.0002526335845021913
0.0002457335859228517
0.0002389600523989221
0.0002322864616208969
0.0004419109708731981
0.0004415077245437232
0.0004404553256105347
0.0004387918961151496
0.0004366147776186443
0.0004339759608485566
0.0004308943319570476
0.0004273949963707794
0.0004235169743396983
0.0004193021790470732
0.0004147894483793166
0.0004100147315328566
0.000405012093812991
0.0003998135354149656
0.0003944483051344962
0.0003889425155535243
0.0003833188125874638
0.0003775961117978209
0.000371789560938038
0.0003659105556234983
0.0003599667303572868
0.0003539620390795042
0.0003478969474634839
0.0003417687657843247
0.0003355720687475228
0.0003292991870106522
0.0003229408332290556
0.0003164871711232401
0.0003099282635027397
0.0003032562687678492
0.0002964657700366925
0.0002895554893543981
0.0002825304063763959
0.0002753985962665447
0.0002681896648739674
0.0002609149149899713
0.000253632113549
0.000246357435841666
0.0002391921258815498
0.0002321248394108715
0.0004371043357791936
0.0004367422126263507
0.0004357963409697611
0.0004342989928975577
0.0004323366481341344
0.0004299539174865375
0.0004271646552547498
0.0004239892204258369
0.000420460724253025
0.0004166151254088041
0.000412485880110244
0.0004081040558430479
0.0004034992022491566
0.0003986991519308879
0.0003937293263049916
0.0003886121925650968
0.000383366918236283
0.0003780091919439313
0.0003725511367277873
0.0003670012073883456
0.000361364119811089
0.0003556409137558893
0.0003498291350730297
0.0003439231138070332
0.0003379143493188913
0.0003317920276041431
0.0003255437114681802
0.0003191562408737234
0.0003126167298284725
0.0003059139356778221
0.0002990400851688494
0.0002919922660253841
0.0002847737551607295
0.000277393707964914
0.000269879878839128
0.0002622532727409564
0.0002545798668851428
0.0002468804614676082
0.0002392676658936289
0.0002317477533714712
0.0004327975845657101
0.000432471714530368
0.0004316196873641356
0.0004302689034362016
0.0004284965941704669
0.0004263413820088346
0.0004238134488136741
0.0004209292624659251
0.0004177169664758598
0.0004142074500567047
0.0004104295040377413
0.0004064099162263064
0.0004021742383180486
0.000397746549283067
0.0003931487270945839
0.0003883998735548553
0.000383515990308596
0.0003785097670663427
0.0003733903895567093
0.0003681633747286294
0.0003628304832767952
0.0003573897336568728
0.0003518355107363133
0.0003461587820272053
0.0003403474494012736
0.0003343868562020072
0.0003282604796659033
0.0003219508449100223
0.0003154406497921666
0.0003087139765075157
0.0003017580443404614
0.0002945678507956507
0.0002871454563721064
0.000279498537177224
0.0002716481330375311
0.0002636259045269524
0.0002555066532189427
0.0002473195873607459
0.0002391898154916435
0.0002311428955263352
0.0004289413579136888
0.0004286477242065199
0.0004278790872927182
0.0004266586953316379
0.0004250558245046088
0.000423104324175662
0.0004208116071628864
0.0004181909532684628
0.0004152663729067633
0.0004120644779955861
0.0004086100652861557
0.0004049262198150412
0.0004010349892177582
0.0003969571140282899
0.0003927113027999306
0.0003883136502669789
0.000383777284139198
0.0003791120957057207
0.0003743244864343595
0.0003694171519423812
0.0003643889324239946
0.0003592347433021345
0.000353945601775638
0.000348508771226592
0.0003429080481529097
0.0003371242083555136
0.0003311356868881791
0.0003249195183901193
0.0003184525974116267
0.0003117131088946658
0.0003046809832615205
0.000297346495191571
0.0002897063091693285
0.0002817654286520469
0.0002735474577447627
0.000265085087446367
0.0002564524357074896
0.0002476989643070796
0.0002389653448711578
0.0002302966507574197
0.0004254918094789393
0.0004252270808596185
0.0004245331384443321
0.0004234296105135758
0.000421978927490829
0.0004202111365701844
0.0004181315387965035
0.0004157508084653621
0.0004130895528095852
0.0004101708052169707
0.0004070159826179903
0.0004036450120192675
0.0004000769259991351
0.0003963295709738806
0.0003924188924684004
0.000388358341096211
0.0003841584838172411
0.000379826687959156
0.0003753668057490756
0.0003707788830277936
0.0003660589241900261
0.0003611987294439502
0.0003561858193532759
0.0003510034704861581
0.0003456309084619072
0.0003400436566936388
0.0003342141360673377
0.0003281126461042211
0.0003217079629274233
0.0003149703836177671
0.0003078763348106659
0.0003004018776835754
0.0002925343913710742
0.0002842770278217028
0.0002756502315369993
0.0002666894681084029
0.0002574658693832393
0.0002480519125248619
0.0002386059515218945
0.000229197273095727
0.000422409731978331
0.0004221711049550451
0.0004215445434286515
0.0004205464653048902
0.0004192333892904657
0.0004176323695710879
0.0004157470711176227
0.0004135860544603288
0.0004111671567158565
0.0004085104501266889
0.0004056345342557788
0.0004025566954624581
0.0003992934345134874
0.0003958601557428414
0.0003922704623850551
0.0003885355531164344
0.0003846638000866383
0.0003806603814971983
0.0003765268966516347
0.0003722609872058668
0.0003678560000972796
0.0003633007125389574
0.000358579124310831
0.0003536703356658718
0.0003485485713747756
0.0003431833890190743
0.0003375402620139977
0.0003315809729855551
0.0003252666733711037
0.0003185576229817463
0.0003114156599911864
0.0003038069315246512
0.0002957082290819851
0.000287113741987144
0.0002780368280122671
0.0002685133473006809
0.00025861368523409
0.0002484290734081843
0.0002381326889968496
0.0002278343041133813
0.0004196597620082741
0.0004194448695712771
0.0004188794811195682
0.0004179771193081761
0.0004167892063316356
0.0004153404936410581
0.0004136333329383002
0.0004116746058568966
0.0004094799287249308
0.0004070669612269228
0.0004044520010456625
0.000401650184438331
0.0003986759526592989
0.0003955427238338691
0.0003922621996625371
0.0003888437540848862
0.0003852939771322637
0.0003816162539280268
0.0003778103065620599
0.0003738717193875784
0.000369791472004014
0.0003655555258283746
0.000361144476332174
0.0003565332374482324
0.0003516908705553591
0.0003465798160189593
0.0003411587857547739
0.0003353806623180434
0.0003291936933032302
0.0003225447363430516
0.0003153812149083925
0.0003076553319146216
0.0002993297839464847
0.0002903826807870371
0.0002808154625716726
0.0002706587358033535
0.000259983237697239
0.0002488962223208701
0.0002375793247263299
0.0002262011711053253
0.0004172098554497224
0.0004170166598673871
0.0004165071002473033
0.0004156920447854912
0.0004146185800724571
0.0004133096796324134
0.0004117666343465146
0.00040999502590784
0.0004080087322192048
0.0004058234895779622
0.0004034537667071397
0.0004009130147383014
0.0003982140770115627
0.0003953688451789547
0.0003923875789174791
0.0003892782873172563
0.0003860462390205557
0.0003826934890413549
0.0003792183517332534
0.0003756148300997022
0.0003718719727596935
0.0003679732541625935
0.0003638961086731475
0.0003596113409244448
0.0003550827759783841
0.0003502675825288032
0.0003451138993950198
0.0003395635488790907
0.0003335520804517949
0.0003270107498342342
0.0003198690954259133
0.000312059327861948
0.0003035224012391842
0.0002942151524614913
0.0002841202357754857
0.0002732559954619784
0.0002616888578553934
0.0002495399664710751
0.0002369974003394511
0.000224302041512645
0.0004150307614828206
0.0004148575038598081
0.0004143991109646308
0.0004136639996380295
0.0004126956363982229
0.0004115156107323697
0.00041012435604759
0.0004085264842541723
0.000406734563426146
0.0004047628440835854
0.0004026244003085119
0.0004003314386279252
0.0003978956542928847
0.0003953278750395843
0.0003926373964832939
0.0003898313564240449
0.0003869142113128689
0.0003838872129009471
0.0003807478257636861
0.0003774890935333154
0.0003740988419300532
0.0003705585383888883
0.0003668427837956359
0.0003629191105063886
0.000358746528745759
0.0003542746357672527
0.000349442905025081
0.0003441812696144633
0.0003384103419932214
0.0003320425400607254
0.0003249847597743942
0.0003171430010697506
0.0003084291280892358
0.0002987699995021981
0.0002881196645292202
0.0002764736859562079
0.000263885333994601
0.0002504813983472988
0.0002364705665565985
0.0002221614457267421
0.0004130957224000481
0.0004129408462907461
0.0004125294758196568
0.0004118677554275469
0.0004109962060966687
0.0004099353340683685
0.0004086848610175829
0.0004072487232239322
0.0004056385646656245
0.0004038675409986712
0.0004019477298722878
0.0003998905103151035
0.0003977068667222859
0.0003954070248285835
0.0003929998090671927
0.0003904920124836744
0.0003878878388367997
0.0003851883231650912
0.0003823907035799731
0.000379487841438065
0.0003764672364778764
0.0003733091171986382
0.0003699859494590039
0.0003664628573115595
0.0003626943862766718
0.000358623536775145
0.0003541809955092826
0.000349284174584075
0.0003438367939580503
0.0003377294703804446
0.0003308418674616731
0.0003230470272530651
0.0003142185692779209
0.0003042414778718718
0.000293027160182694
0.000280533015310978
0.0002667848867360849
0.0002519045502607114
0.000236117824106118
0.0002198097616930505
0.0004113801233360055
0.000411242250807055
0.0004108741496817705
0.000410279878103548
0.0004094976693270226
0.0004085471556251773
0.0004074274381643301
0.000406142049955634
0.0004047020594203201
0.0004031198732734018
0.0004014069363137418
0.0003995741920166908
0.0003976323335298823
0.000395591441854921
0.0003934603766219126
0.0003912461463286496
0.0003889533156125495
0.0003865833372850386
0.000384133891957557
0.0003815985141083696
0.0003789663711516486
0.0003762150277688262
0.0003733189284752211
0.0003702406162385368
0.0003669311255889564
0.0003633283527435767
0.0003593546474998683
0.0003549148931793883
0.0003498950630822315
0.00034416160575822
0.00033756232582773
0.0003299297628041414
0.0003210881820445999
0.0003108654918708399
0.0002991113004472558
0.0002857226736237935
0.0002706749525397664
0.0002540656306587361
0.0002361243739264519
0.000217322897730556
0.0004098613466324299
0.0004097392183027079
0.0004094108908691618
0.000408878558669438
0.0004081788268843208
0.0004073305517292127
0.0004063322526031294
0.0004051873267417319
0.0004039065826198595
0.0004025019767335639
0.0004009846475991581
0.0003993654667470421
0.0003976552324447208
0.0003958643241749477
0.000394002148514471
0.0003920765249558214
0.0003900930436363832
0.0003880544326688474
0.0003859588962221593
0.0003838058371793516
0.0003815769117169453
0.0003792591998145836
0.0003768259413353108
0.0003742393496821601
0.0003714492419595854
0.0003683899908279751
0.0003649771943491718
0.0003611044428068765
0.0003566402390566346
0.0003514254415399297
0.0003452720002251233
0.0003379642957881018
0.0003292646741142376
0.0003189253242870187
0.0003067086163706608
0.0002924195460764255
0.0002759468533398764
0.0002573300760369513
0.0002367741289633977
0.0002148422999755977
0.0004085185373327113
0.0004084110037329558
0.0004081191214084528
0.0004076435209989789
0.0004070198593083009
0.0004062661683500998
0.0004053803848265549
0.0004043660515981576
0.0004032339923657574
0.0004019959629319034
0.0004006630914490246
0.0003992465107034577
0.0003977574808448917
0.0003962070890649647
0.0003946058014014518
0.0003929628882957778
0.0003912857256108611
0.0003895793390358328
0.0003878460058133562
0.000386077397031532
0.0003842716528784327
0.0003824137242419252
0.0003804790954886767
0.0003784328690165084
0.0003762262563573252
0.0003737928970924123
0.0003710446034227081
0.0003678664761076314
0.0003641115947906494
0.000359595700485072
0.0003540926959829632
0.0003473322502110055
0.0003390017539258439
0.0003287558604205076
0.000316237007945039
0.0003011138791774439
0.0002831338047059308
0.0002622216108371927
0.0002385026532653579
0.0002126215676057396
0.0004073325716951138
0.0004072385415168425
0.0004069798200663327
0.0004065559281302965
0.000406002261516431
0.0004053357610426762
0.0004045537838710579
0.0004036603533311677
0.0004026665302923051
0.0004015840449210977
0.0004004242691912564
0.0003991989011292268
0.0003979199639419838
0.0003965995980104188
0.0003952497873422306
0.0003938822135694776
0.0003925061268110359
0.000391128467374193
0.0003897531258224742
0.0003883829800638782
0.0003870153658847678
0.0003856396840800834
0.0003842374974854074
0.0003827793857253287
0.0003812212973822007
0.0003795002552225489
0.0003775289025630278
0.0003751887557665718
0.0003723222271852441
0.0003687236447031292
0.00036412992638714
0.0003582124430548663
0.0003505722143859224
0.0003407430156455179
0.0003282075461885519
0.0003124386514096963
0.0002929611983872667
0.0002694923408796089
0.0002419758157794697
0.0002110959384443948
0.0004062859292999707
0.0004062043304717356
0.0004059754091826435
0.0004055983287176418
0.0004051088423217184
0.0004045222398354337
0.000403835367337129
0.0004030530983322772
0.0004021869113328932
0.0004012486449719897
0.000400250126611528
0.0003992038715457325
0.0003981228834586766
0.0003970205214445494
0.0003959106064253207
0.0003948091738078252
0.0003937255563060119
0.0003926699274157457
0.0003916538652030261
0.000390684462559806
0.0003897632922895484
0.0003888873151309669
0.0003880463408528238
0.000387219563759797
0.0003863719092739681
0.0003854491287445566
0.0003843711679706983
0.0003830235260116661
0.0003812463200542155
0.0003788208566163925
0.0003754539147721006
0.0003707608502260359
0.0003642500617454942
0.0003553135237404017
0.0003432299940184847
0.0003272005530638593
0.0003064114932922836
0.0002802241973009498
0.0002482164003224963
0.0002110010515640709
0.0004053626762258895
0.0004052923727928497
0.0004050897784935517
0.0004047548202631928
0.0004043239565309418
0.0004038099102746731
0.0004032093312533293
0.0004025282927743889
0.0004017787922097638