/*--------------------------------*- C++ -*----------------------------------*\
| =========                 |                                                 |
| \\      /  F ield         | OpenFOAM: The Open Source CFD Toolbox           |
|  \\    /   O peration     | Version:  2206                                  |
|   \\  /    A nd           | Website:  www.openfoam.com                      |
|    \\/     M anipulation  |                                                 |
\*---------------------------------------------------------------------------*/
FoamFile
{
    version     2.0;
    format      ascii;
    arch        "LSB;label=32;scalar=64";
    class       surfaceScalarField;
    location    "2";
    object      phi;
}
// * * * * * * * * * * * * * * * * * * * * * * * * * * * * * * * * * * * * * //

dimensions      [0 3 -1 0 0 0 0];

oriented        oriented;

internalField   nonuniform List<scalar> 
35915
(
4.183862465067327e-05
8.647759897344623e-07
4.050695710293045e-05
1.331666920332827e-06
3.90832888980268e-05
1.423667167067974e-06
3.760793844420154e-05
1.475349015307443e-06
3.607980681356721e-05
1.528129803210358e-06
3.452248540063837e-05
1.557319210188472e-06
3.295449005207503e-05
1.567992785574175e-06
3.139079693348091e-05
1.563690211649376e-06
2.984116605535672e-05
1.54962764447562e-06
2.831250242920601e-05
1.528660083630503e-06
2.68084908304319e-05
1.504007765589978e-06
2.532864946341503e-05
1.479837261323105e-06
2.388102638425068e-05
1.44761871868339e-06
2.248484123707796e-05
1.39618054887939e-06
2.115407496223991e-05
1.330761454498881e-06
1.989634018954638e-05
1.257729744413984e-06
1.871739560780072e-05
1.178939357632084e-06
1.762227738529673e-05
1.095112812217657e-06
1.661489206220041e-05
1.007379733387471e-06
1.569854243988192e-05
9.163438567275638e-07
1.487492874801168e-05
8.236077502243984e-07
1.414056174750265e-05
7.34360878750686e-07
1.349016914464393e-05
6.503862925789115e-07
1.291861449757083e-05
5.715481353987392e-07
1.242032227561745e-05
4.982854912694315e-07
1.198868886102239e-05
4.316264425384957e-07
1.161685442640907e-05
3.718271940159181e-07
1.129751501486476e-05
3.193318706023432e-07
1.102395613070039e-05
2.735510065192535e-07
1.07895185254725e-05
2.34429350572235e-07
1.058833107302618e-05
2.011787766725001e-07
1.041443795665567e-05
1.738839725698683e-07
1.026284448982796e-05
1.515838059049581e-07
1.012890960528065e-05
1.339246563255946e-07
1.000916717285453e-05
1.197315867232576e-07
9.900367717581655e-06
1.087879433978503e-07
9.799804338122132e-06
1.005511555598273e-07
9.705591349409732e-06
9.420001216755737e-08
9.612723825835892e-06
9.285375964302598e-08
9.488375609583994e-08
9.517825576811662e-06
4.306955084453999e-05
4.986257888606262e-07
4.338711605490508e-05
1.014101092261277e-06
4.352825714530476e-05
1.2825250555077e-06
4.35544633504161e-05
1.449141395619695e-06
4.350557549096986e-05
1.577015866876619e-06
4.33774818347094e-05
1.685410703222734e-06
4.317888243071765e-05
1.766589674210615e-06
4.2917169650845e-05
1.825400140461364e-06
4.260200516995998e-05
1.864788956108769e-06
4.223773661609826e-05
1.892925168117919e-06
4.182843457132967e-05
1.913306059316451e-06
4.138461853828555e-05
1.923649280008203e-06
4.090777679187054e-05
1.924456205462577e-06
4.039907314854767e-05
1.904879704358346e-06
3.985699785950124e-05
1.872832043545637e-06
3.928728555915781e-05
1.827437146985257e-06
3.869605066548357e-05
1.770169168113837e-06
3.808951870339134e-05
1.701639515538196e-06
3.747271649650794e-05
1.624176513079379e-06
3.684935786339284e-05
1.539696897932415e-06
3.622332503916303e-05
1.449634818089792e-06
3.560082831201226e-05
1.35685168124496e-06
3.498843864617516e-05
1.262769857472482e-06
3.439043852725511e-05
1.169541964483404e-06
3.380876598101156e-05
1.079951541599487e-06
3.324543467299981e-05
9.94951026454581e-07
3.270209935322083e-05
9.151555348157698e-07
3.218003314413879e-05
8.413908141013568e-07
3.167996034916793e-05
7.736162133861093e-07
3.120209063245065e-05
7.122911162948476e-07
3.074691628246197e-05
6.563447689471636e-07
3.031338354513148e-05
6.074078983435121e-07
2.990094245419034e-05
5.640155821722452e-07
2.950813158556667e-05
5.267256564505061e-07
2.913423232313797e-05
4.936203760584399e-07
2.877720313689436e-05
4.658060021129109e-07
2.843621029382705e-05
4.415321694499054e-07
2.810880674438506e-05
4.215909885106663e-07
2.77971481940238e-05
4.044989563565489e-07
3.933116375787588e-07
2.749870623349819e-05
4.29127173666847e-05
2.893090699972259e-07
4.320290437804595e-05
7.239134763176388e-07
4.347699118323919e-05
1.008437251549339e-06
4.371284718257878e-05
1.21328401380748e-06
4.391962358444575e-05
1.370237711311101e-06
4.40984012028288e-05
1.506630974033911e-06
4.425579706330275e-05
1.609191361548004e-06
4.439075633846594e-05
1.690438088632811e-06
4.449319306448939e-05
1.762349146813278e-06
4.456722713715251e-05
1.818887724091486e-06
4.46168732481102e-05
1.863656307784212e-06
4.46453737318846e-05
1.895144905286342e-06
4.465198818787749e-05
1.917837626647419e-06
4.463485710417054e-05
1.922006451051152e-06
4.459326123367626e-05
1.914423379332258e-06
4.452616265916923e-05
1.894531003924038e-06
4.443525960430786e-05
1.861067335463319e-06
4.432392963181816e-05
1.812964440980896e-06
4.419249976649312e-05
1.755601179381126e-06
4.404171185856046e-05
1.690479459141511e-06
4.387189669441961e-05
1.619444488435432e-06
4.368392674955693e-05
1.54481598185418e-06
4.347969009270803e-05
1.467000711917978e-06
4.326103389131196e-05
1.388192193050216e-06
4.303036931870925e-05
1.310609953873643e-06
4.279001802499996e-05
1.235295950447531e-06
4.254211606259329e-05
1.163050891160662e-06
4.22891672904203e-05
1.09433271217285e-06
4.203273151414611e-05
1.030044810944413e-06
4.177390392631e-05
9.711111799415713e-07
4.15135392051924e-05
9.167015754560566e-07
4.125345300419173e-05
8.674857460059147e-07
4.099466444395607e-05
8.227952992915116e-07
4.073839410705857e-05
7.829866077244357e-07
4.048489997013847e-05
7.47104531342074e-07
4.023456943973566e-05
7.161259019388295e-07
3.998742801291565e-05
6.886622657755646e-07
3.974261600985849e-05
6.663909143496131e-07
3.950403730112358e-05
6.430647994712348e-07
6.238288526972119e-07
3.927350648303574e-05
4.280201548468602e-05
1.906942388298464e-07
4.298344800642026e-05
5.424803667010409e-07
4.318225917319791e-05
8.096251141585926e-07
4.338354450158895e-05
1.011997342947652e-06
4.358099672952749e-05
1.172783781926891e-06
4.377961872680585e-05
1.308006931067155e-06
4.396786286458456e-05
1.420944850000017e-06
4.414654491089471e-05
1.511753357886523e-06
4.43192216608463e-05
1.589669420267688e-06
4.448422655165394e-05
1.653879583781291e-06
4.464044995603065e-05
1.707429400488261e-06
4.478833546331182e-05
1.747255661224408e-06
4.492973853799883e-05
1.776430600573125e-06
4.506081569624253e-05
1.79092514522421e-06
4.518255211452787e-05
1.792682634510564e-06
4.5296056976718e-05
1.781021651959291e-06
4.539933261843137e-05
1.757787054347175e-06
4.548415592746638e-05
1.728136354100651e-06
4.555042747932759e-05
1.689324719471025e-06
4.559887097217367e-05
1.642030932974514e-06
4.563095119715612e-05
1.587359106144251e-06
4.564703116161159e-05
1.528730733175077e-06
4.564905353042569e-05
1.464972924680041e-06
4.563638595669766e-05
1.400854202132109e-06
4.561212962506198e-05
1.334860557705794e-06
4.557534551411919e-05
1.27207414829268e-06
4.55283269366323e-05
1.210063342957848e-06
4.547323861858132e-05
1.149414659506532e-06
4.541091159312666e-05
1.092365183177215e-06
4.534219292887536e-05
1.039822866083382e-06
4.526730744698195e-05
9.915797076265538e-07
4.51872734797348e-05
9.475119411140838e-07
4.510320575659821e-05
9.068547739022031e-07
4.501576757336197e-05
8.704160095384273e-07
4.492532664024033e-05
8.37536092316292e-07
4.483265242976394e-05
8.087900914050058e-07
4.47378341431217e-05
7.834698255059549e-07
4.464226015613785e-05
7.619534149126302e-07
4.454419972007057e-05
7.411129400517366e-07
7.246933769910544e-07
4.444332213625655e-05
4.274949434316888e-05
1.446005554318161e-07
4.286607923459086e-05
4.258949068250723e-07
4.301294518381086e-05
6.627582271170472e-07
4.317135794716753e-05
8.535832836699744e-07
4.333356339580067e-05
1.010576692692538e-06
4.349937188473134e-05
1.142196472068637e-06
4.366562850194532e-05
1.254685950052119e-06
4.382996746378532e-05
1.34741181893663e-06
4.399386275292042e-05
1.425771278840053e-06
4.415722212372089e-05
1.490517105562961e-06
4.432063445064988e-05
1.54401373150811e-06
4.448278095138492e-05
1.585105604273643e-06
4.464411502043126e-05
1.615092781402043e-06
4.480158461255349e-05
1.633451628526668e-06
4.495303705861371e-05
1.641226107686542e-06
4.509598121138137e-05
1.638073278985744e-06
4.522959252486234e-05
1.624171395888062e-06
4.535538418051303e-05
1.602340240860899e-06
4.547190547613313e-05
1.572798862846058e-06
4.557749044609101e-05
1.53644130444734e-06
4.567209288065965e-05
1.492751917438884e-06
4.575558424564919e-05
1.445234516240991e-06
4.582798732550215e-05
1.392564888240646e-06
4.588983456836561e-05
1.339001886296975e-06
4.594235213638024e-05
1.282337783391161e-06
4.59872868877803e-05
1.227134034933675e-06
4.602504608722846e-05
1.172298597976497e-06
4.605311894035111e-05
1.121336043806208e-06
4.60731921808453e-05
1.072285924052928e-06
4.608691430394736e-05
1.026094423899394e-06
4.609483865953229e-05
9.836486830229219e-07
4.609880725213819e-05
9.435362755365447e-07
4.609996270084999e-05
9.056917900592454e-07
4.609802156906231e-05
8.723490826178377e-07
4.609316333589012e-05
8.423856793626391e-07
4.608594006403654e-05
8.160040646306339e-07
4.607666336142118e-05
7.927365118546063e-07
4.606585848436971e-05
7.727474950532711e-07
4.605239668745654e-05
7.545630994109649e-07
7.386460781589891e-07
4.603843154620996e-05
4.273252527894838e-05
1.15475943798472e-07
4.281316351299771e-05
3.452561263824437e-07
4.292412023822831e-05
5.518006011386517e-07
4.305047182607366e-05
7.272304524265426e-07
4.318531464338195e-05
8.757323033082548e-07
4.332542107593074e-05
1.002088154647851e-06
4.346915460398073e-05
1.110950241973388e-06
4.361372011808312e-05
1.202843848666611e-06
4.375899669697908e-05
1.280491987911694e-06
4.390448635507452e-05
1.345024500655519e-06
4.405041230269014e-05
1.398084623938778e-06
4.419584216915051e-05
1.439672386366365e-06
4.434041414063787e-05
1.470517288403296e-06
4.448316855320776e-05
1.490693545181991e-06
4.462360962549922e-05
1.500781235025116e-06
4.476052942848667e-05
1.501149564035974e-06
4.489246739114269e-05
1.492229425673333e-06
4.501939313123746e-05
1.475410411027041e-06
4.514075372339708e-05
1.451434109189681e-06
4.525598069652641e-05
1.421210105035761e-06
4.536385806588725e-05
1.384870259941288e-06
4.546465701311218e-05
1.344431217628714e-06
4.555718730597483e-05
1.300030174527417e-06
4.564242597718601e-05
1.253758713373156e-06
4.571892181338948e-05
1.205837347671284e-06
4.578758870958108e-05
1.158462418780196e-06
4.58489361439487e-05
1.110946294541776e-06
4.590454188893065e-05
1.065725245899849e-06
4.595465126971953e-05
1.022171265620312e-06
4.599988543742975e-05
9.808547069663132e-07
4.604133824942153e-05
9.421899975246866e-07
4.607792553331383e-05
9.069427355936575e-07
4.610925686298154e-05
8.743537585569234e-07
4.613705059262251e-05
8.445481377548846e-07
4.616266146906668e-05
8.16767003195319e-07
4.618620168073365e-05
7.924553949870056e-07
4.62088402316947e-05
7.700887695396488e-07
4.623104743044811e-05
7.505302972490705e-07
4.625262151500616e-05
7.329781350969141e-07
7.191349787816663e-07
4.627212088342293e-05
4.272287537791293e-05
9.600124090987486e-08
4.277962725488047e-05
2.885037272034557e-07
4.286374337476266e-05
4.676836211757173e-07
4.29650448349065e-05
6.259278064737519e-07
4.307736871912933e-05
7.634069221395742e-07
4.319707184269892e-05
8.823832396895377e-07
4.332215941714186e-05
9.858606002032474e-07
4.345034276773475e-05
1.074658174920212e-06
4.358055455257521e-05
1.150277645449827e-06
4.371193862072669e-05
1.213637662765617e-06
4.384405732358964e-05
1.265962962097612e-06
4.397613416126805e-05
1.307592423655336e-06
4.410754134005565e-05
1.339106841536603e-06
4.423748963470036e-05
1.3607418616729e-06
4.436526892699168e-05
1.37299845427335e-06
4.449009928008741e-05
1.376315642575193e-06
4.461108145943836e-05
1.371243615644894e-06
4.472780637880022e-05
1.358681813611552e-06
4.483991240210414e-05
1.339324372409845e-06
4.494705296844926e-05
1.314065798078756e-06
4.504858939274231e-05
1.283330072144037e-06
4.514450523731818e-05
1.248511586229179e-06
4.52343944352301e-05
1.210137161060133e-06
4.531837171951168e-05
1.169777573894957e-06
4.539638617688655e-05
1.127818978705392e-06
4.546898731175578e-05
1.085857292956428e-06
4.55361719249439e-05
1.043757581572322e-06
4.559864615086147e-05
1.003246775247005e-06
4.565691663418778e-05
9.63896349740034e-07
4.571097148108747e-05
9.267951899468707e-07
4.576190427426897e-05
8.912522402607116e-07
4.581022064828497e-05
8.586210406002769e-07
4.585640043974749e-05
8.281682201335345e-07
4.589997333026388e-05
8.009689996211661e-07
4.594144477125254e-05
7.752887342995451e-07
4.598098886280927e-05
7.529038114969065e-07
4.601909207958572e-05
7.319773101964029e-07
4.605540168620897e-05
7.142116095228668e-07
4.609084986572351e-05
6.975199479071785e-07
6.839242876481411e-07
4.612604964158319e-05
4.271769066531492e-05
8.171125964313042e-08
4.276028016608724e-05
2.459137303150064e-07
4.282630486927965e-05
4.016581016147104e-07
4.290913403406417e-05
5.430975178506227e-07
4.300373923921427e-05
6.688003009432603e-07
4.31067557926841e-05
7.793649954687403e-07
4.321606753600077e-05
8.765469109707281e-07
4.33297455202146e-05
9.609780108730401e-07
4.34464083253141e-05
1.033612449281763e-06
4.3565011078349e-05
1.095032331229328e-06
4.368480208969228e-05
1.14616920926919e-06
4.380502292426926e-05
1.187368709445465e-06
4.392495247354499e-05
1.219174299225649e-06
4.404386595435314e-05
1.241825298545943e-06
4.416105165087327e-05
1.255809609225807e-06
4.427583870753006e-05
1.261525392753751e-06
4.438757027274306e-05
1.25950883206884e-06
4.44957980444229e-05
1.250450815227175e-06
4.460015283173748e-05
1.234966363731585e-06
4.470028339609748e-05
1.213932027708452e-06
4.479576520455946e-05
1.187845078705551e-06
4.488638570730319e-05
1.157887920497622e-06
4.497196441720782e-05
1.124555305783888e-06
4.505250845123407e-05
1.089230401882927e-06
4.512811848128652e-05
1.052205801640019e-06
4.519902521385836e-05
1.014947381183225e-06
4.526540496999849e-05
9.773745838996296e-07
4.532766614873707e-05
9.40982255204723e-07
4.538628018549447e-05
9.05278826898238e-07
4.544148586292404e-05
8.715858290072883e-07
4.549375574264746e-05
8.389784192353844e-07
4.554334320565011e-05
8.090293105493767e-07
4.559090958578174e-05
7.805971718034195e-07
4.563668532062248e-05
7.551881129491074e-07
4.568090847551387e-05
7.31059854996861e-07
4.572380180743792e-05
7.100040877948037e-07
4.576553601267257e-05
6.902359459322508e-07
4.580619112572237e-05
6.735484675344685e-07
4.584583302847689e-05
6.578690407723601e-07
6.451500951372434e-07
4.588459724813616e-05
4.27145786426485e-05
7.053330973779911e-08
4.274794925682777e-05
2.125426473877499e-07
4.280090476538561e-05
3.487018228240653e-07
4.286928182547347e-05
4.747193992430487e-07
4.294931757130273e-05
5.887632243198841e-07
4.303817805705783e-05
6.905029251568808e-07
4.313385952852382e-05
7.808636218130322e-07
4.32346536978135e-05
8.601818133738722e-07
4.333915644126986e-05
9.291074911654922e-07
4.344624697647529e-05
9.879394203889897e-07
4.355503265201895e-05
1.037381023366193e-06
4.366471717276831e-05
1.077681570337186e-06
4.377454963657832e-05
1.109339135733062e-06
4.388382796671927e-05
1.13254421365423e-06
4.399188576389924e-05
1.147749027433152e-06
4.409812132311917e-05
1.155287042864917e-06
4.420197526044325e-05
1.155652119662905e-06
4.430299895686247e-05
1.14942437836843e-06
4.440080838568074e-05
1.137154244953088e-06
4.449508203421934e-05
1.119655751577511e-06
4.458549872227923e-05
1.097425833083083e-06
4.467186049785496e-05
1.07152365989132e-06
4.475401605742295e-05
1.042397330649533e-06
4.483194446620445e-05
1.011299637838237e-06
4.490567353082738e-05
9.784744261748363e-07
4.497535375525524e-05
9.452648673068859e-07
4.504115544015783e-05
9.115706003554439e-07
4.510338160505392e-05
8.78753743801685e-07
4.516234037260091e-05
8.463176180567125e-07
4.521831519943968e-05
8.156084105814373e-07
4.527156521570395e-05
7.857255967704295e-07
4.532241920751645e-05
7.581722248223789e-07
4.537124900701821e-05
7.317639087251836e-07
4.54183998860108e-05
7.080333101940685e-07
4.546399415665728e-05
6.854611015347086e-07
4.550829664239255e-05
6.656964534680065e-07
4.555135478975012e-05
6.471718704809844e-07
4.559333409884041e-05
6.315623312226489e-07
4.563409246614605e-05
6.171028229201737e-07
6.05496499954295e-07
4.567373717956732e-05
4.27124493045738e-05
6.148470781741319e-08
4.273944665328181e-05
1.855448584793996e-07
4.278289198031303e-05
3.052557733987502e-07
4.284016287225061e-05
4.174475165972204e-07
4.290852738228098e-05
5.203974720955162e-07
4.298568364030094e-05
6.133451929217119e-07
4.306983717943858e-05
6.967083983513582e-07
4.315945903915635e-05
7.705580832209892e-07
4.325322793288221e-05
8.353365667027609e-07
4.335002903793986e-05
8.911361515149843e-07
4.344892960849196e-05
9.384781841281237e-07
4.354911703884395e-05
9.774917953142703e-07
4.364984849620807e-05
1.008605286665578e-06
4.375044960382737e-05
1.031940695914974e-06
4.385029766424828e-05
1.047898566160848e-06
4.394884064255082e-05
1.05674169924023e-06
4.404557568619952e-05
1.058914770456008e-06
4.414008606175827e-05
1.054911778547752e-06
4.423200887638305e-05
1.045229305604315e-06
4.432105533659424e-05
1.030607280552782e-06
4.440695409537816e-05
1.01152518713837e-06
4.448952370841277e-05
9.8895228788119e-07
4.456861703351222e-05
9.633023734731712e-07
4.46441964620232e-05
9.357186963064471e-07
4.471625122579304e-05
9.064182535369857e-07
4.478489232948725e-05
8.766224363483576e-07
4.485022850943028e-05
8.462331440130575e-07
4.491248432367243e-05
8.164966645925192e-07
4.497184999842134e-05
7.869506411428073e-07
4.502859286813222e-05
7.588641434931732e-07
4.50829012464732e-05
7.314156578630504e-07
4.513509563580235e-05
7.05976033682695e-07
4.518539113102849e-05
6.814662820937984e-07
4.523409118205671e-05
6.593306994851155e-07
4.528126949524294e-05
6.382796914839524e-07
4.532715166144958e-05
6.198105342176638e-07
4.537173508921196e-05
6.025839048746706e-07
4.541516827819535e-05
5.881236828893929e-07
4.545732194955097e-05
5.749426253449379e-07
5.644019214141046e-07
4.549840891099963e-05
4.271091335044199e-05
5.397206916782302e-08
4.273331785406915e-05
1.631399435651491e-07
4.276968361615602e-05
2.688893376333952e-07
4.281829641885058e-05
3.688337922684954e-07
4.287718603452146e-05
4.615067045007291e-07
4.294452795494029e-05
5.46001910910237e-07
4.301879240169194e-05
6.22442403555582e-07
4.309863606787804e-05
6.907127082154844e-07
4.318286363197956e-05
7.511071605236284e-07
4.327041839775335e-05
8.035794396090806e-07
4.336038861625079e-05
8.485059459028591e-07
4.345197394081733e-05
8.859044085214122e-07
4.354445780262501e-05
9.1611935168125e-07
4.363719659942655e-05
9.391998462367006e-07
4.372960827056493e-05
9.55484892922532e-07
4.382118200440641e-05
9.651660431070091e-07
4.391146097938627e-05
9.686339800809225e-07
4.400006422531827e-05
9.663068485661018e-07
4.408665691228841e-05
9.586350870098549e-07
4.417097492420526e-05
9.462879065475956e-07
4.425277587174488e-05
9.297230593885448e-07
4.433189417107894e-05
9.0983299717969e-07
4.440818659426552e-05
8.870091485610742e-07
4.448160577633552e-05
8.622988962187839e-07
4.455211351198801e-05
8.35910070032432e-07
4.461978182442003e-05
8.089538246322343e-07
4.468466348500426e-05
7.81351302328699e-07
4.47469283026675e-05
7.542317442646467e-07
4.480669409042549e-05
7.271847795650118e-07
4.486419283389408e-05
7.013652948000837e-07
4.491955725429838e-05
6.760510298103145e-07
4.497305457747438e-05
6.524783179555492e-07
4.502481306555188e-05
6.29707122291388e-07
4.507508258611852e-05
6.090601217014939e-07
4.512390719903051e-05
5.894535171593702e-07
4.517146981486592e-05
5.722457216372253e-07
4.521773170238913e-05
5.563190418286815e-07
4.526281454887638e-05
5.43036926948549e-07
4.530656192120753e-05
5.31190243377565e-07
5.21833708221019e-07
4.534912398057869e-05
4.270975998188684e-05
4.761280926006219e-08
4.272871226639776e-05
1.441872769787734e-07
4.275964736461014e-05
2.379536146308579e-07
4.280139937356109e-05
3.270809309568718e-07
4.285254472976883e-05
4.103602870247276e-07
4.291165152721506e-05
4.868938650878324e-07
4.297745416226335e-05
5.566383576955428e-07
4.304879312572236e-05
6.193721987918892e-07
4.312461217152557e-05
6.752864631444379e-07
4.320393193842961e-05
7.242579468444854e-07
4.328589213672799e-05
7.665439802555301e-07
4.336972100270366e-05
8.020737675269619e-07
4.345474138033343e-05
8.310972255535395e-07
4.354034469089538e-05
8.535948478543564e-07
4.362599311113611e-05
8.698348790583011e-07
4.371121416484232e-05
8.799435222320585e-07
4.379559299402417e-05
8.842538404473795e-07
4.387878141551556e-05
8.831173010055517e-07
4.396047450694148e-05
8.769410782320863e-07
4.404043380318195e-05
8.663279219079637e-07
4.411844182850338e-05
8.517145900044017e-07
4.419434834006393e-05
8.339262957338785e-07
4.426801459793928e-05
8.133429584124939e-07
4.433938485001847e-05
7.909289658250695e-07
4.440840100976379e-05
7.668944744230624e-07
4.447510312874415e-05
7.422524921322858e-07
4.453950426028008e-05
7.169511502034189e-07
4.460172959328917e-05
6.920075442347547e-07
4.466184653368411e-05
6.670690756560667e-07
4.472004252711144e-05
6.431705800380264e-07
4.477640448639665e-05
6.19690317972391e-07
4.483114840600763e-05
5.97735528572604e-07
4.488434927920902e-05
5.765071628379089e-07
4.493620509967357e-05
5.572048853421654e-07
4.498672404420902e-05
5.389346994841063e-07
4.503604065959746e-05
5.229286332517701e-07
4.508408021639961e-05
5.0827825414657e-07
4.513092354365806e-05
4.961914382264078e-07
4.517639044556794e-05
4.85720060500452e-07
4.776058641397429e-07
4.522061382447893e-05
4.270886315835481e-05
4.215038182624501e-08
4.272513397032952e-05
1.279161113396888e-07
4.275179876934727e-05
2.11288238869989e-07
4.278803309355503e-05
2.908458226285227e-07
4.283280308580264e-05
3.655893228396501e-07
4.288497485965249e-05
4.347209545986338e-07
4.294351894249177e-05
4.980929997318504e-07
4.300744571447121e-05
5.554440423056551e-07
4.307585052867924e-05
6.068801866055163e-07
4.314783249898208e-05
6.522744700825778e-07
4.322260122167822e-05
6.917737423501535e-07
4.329941924195945e-05
7.252542597978192e-07
4.337766475156827e-05
7.5285029350984e-07
4.345676400029083e-05
7.744942790550264e-07
4.35362314634063e-05
7.903662350419728e-07
4.361563109275618e-05
8.005428868089042e-07
4.369458802708916e-05
8.052961087844796e-07
4.377278289552675e-05
8.049218752496885e-07
4.384994188169729e-05
7.997818026874949e-07
4.392585600376312e-05
7.90413802241077e-07
4.40003285920807e-05
7.772423147723738e-07
4.407322815642413e-05
7.610273683208866e-07
4.414441972418394e-05
7.421523580029991e-07
4.421384146507226e-05
7.215085219474637e-07
4.428141850365171e-05
6.993190535776117e-07
4.434716737968092e-05
6.765055366088665e-07
4.441107158248283e-05
6.530491430604958e-07
4.447322156138331e-05
6.298599979022097e-07
4.453364610482514e-05
6.066471521654533e-07
4.459249427435661e-05
5.843251562686265e-07
4.464981313617849e-05
5.623742532638139e-07
4.470577862972713e-05
5.417727952000694e-07
4.476041641174857e-05
5.218720010625241e-07
4.481388161974237e-05
5.037420391420272e-07
4.486614056351974e-05
4.866777239709404e-07
4.491727581056368e-05
4.717948082574546e-07
4.496717781409548e-05
4.583769553491787e-07
4.501588294222084e-05
4.474861073591813e-07
4.506317668844549e-05
4.384249945889085e-07
4.316386074321657e-07
4.510914141845552e-05
4.270814783018178e-05
3.740329230995186e-08
4.272228118802548e-05
1.137824275361861e-07
4.274551734450071e-05
1.880515519314164e-07
4.277724408204388e-05
2.591183667634546e-07
4.281671368412556e-05
3.261188351896466e-07
4.286301723737265e-05
3.88416372939849e-07
4.291531515898897e-05
4.457939346876549e-07
4.29727612489102e-05
4.979967249565167e-07
4.303461727448354e-05
5.45022883403521e-07
4.310006846860335e-05
5.868219842439242e-07
4.31683931722997e-05
6.23447770945507e-07
4.323888373547711e-05
6.547624924306498e-07
4.331098117061163e-05
6.807517581935327e-07
4.338414952503697e-05
7.01324969160711e-07
4.345795906998808e-05
7.165559198476321e-07
4.353200681712459e-05
7.264945941072e-07
4.360595976146565e-05
7.313428812929989e-07
4.367954188209477e-05
7.313397691500554e-07
4.375249936972568e-05
7.268246592651364e-07
4.382464906174693e-05
7.182648119264135e-07
4.389580327675495e-05
7.060891817867645e-07
4.396586232203557e-05
6.909698024426718e-07
4.403469028073588e-05
6.733262863308638e-07
4.410224028240623e-05
6.539608176290218e-07
4.416842063374583e-05
6.331414041653274e-07
4.423323524429303e-05
6.116940175727534e-07
4.429663171731164e-05
5.896561259881128e-07
4.435867948434052e-05
5.678160152131717e-07
4.441937321049189e-05
5.459574908493041e-07
4.447884142001235e-05
5.248612315637132e-07
4.453709801715481e-05
5.041220866280863e-07
4.459428504458826e-05
4.845902550623916e-07
4.465038679590574e-05
4.657746890903306e-07
4.470550918335814e-05
4.486239211773169e-07
4.475956784266213e-05
4.326230238829179e-07
4.481260166675853e-05
4.187644725344822e-07
4.486446539586545e-05
4.065160614440084e-07
4.491514510713993e-05
3.968083734487628e-07
4.496439054985905e-05
3.891804408443342e-07
3.837902537244949e-07
4.501223858929783e-05
4.270756524508104e-05
3.323879575281501e-08
4.27199604332046e-05
1.013869391428097e-07
4.274038760451529e-05
1.676238937976252e-07
4.27683885263369e-05
2.311167886717917e-07
4.280340003760451e-05
2.91106519934616e-07
4.284470473825365e-05
3.471107463669445e-07
4.289162368249246e-05
3.988739721538433e-07
4.294342487351729e-05
4.461944561967531e-07
4.299945554368618e-05
4.889911122008093e-07
4.305904626949306e-05
5.272301728224111e-07
4.312157530139243e-05
5.609177098409729e-07
4.318637117294964e-05
5.899656907506285e-07
4.325289297772037e-05
6.142291662240951e-07
4.332065125266457e-05
6.335660943684617e-07
4.338926076906773e-05
6.479460353637716e-07
4.345836940886764e-05
6.573858614842406e-07
4.352770618671286e-05
6.620063278395326e-07
4.35970166208377e-05
6.620299162813615e-07
4.366606982947502e-05
6.577724250947865e-07
4.373470393817753e-05
6.496321031835133e-07
4.380272936460149e-05
6.380656080844013e-07
4.387008494056965e-05
6.236165532582184e-07
4.393662490862968e-05
6.067891335796066e-07
4.400234880003946e-05
5.882402368798881e-07
4.40671456611257e-05
5.683483472309225e-07
4.413102887616074e-05
5.478150888369805e-07
4.419391222883858e-05
5.267775200397144e-07
4.425585947623197e-05
5.058739420466209e-07
4.431682615158147e-05
4.849963721851825e-07
4.43769289155888e-05
4.647643485749493e-07
4.443614360481379e-05
4.449135305311901e-07
4.449458912597666e-05
4.261510316087767e-07
4.45522030393506e-05
4.08167133748901e-07
4.460904416466057e-05
3.9178909161931e-07
4.466499422803128e-05
3.766790511552914e-07
4.472004087627848e-05
3.637235445754578e-07
4.477399809244315e-05
3.525640052174282e-07
4.482679446909801e-05
3.440163791648873e-07
4.487813637596717e-05
3.378418926017116e-07
3.339258103631877e-07
4.492800300941195e-05
4.270708236451835e-05
2.95571884174117e-08
4.271803914098144e-05
9.042988625820917e-08
4.273612485963421e-05
1.495377281733154e-07
4.27610083722114e-05
2.062326767271107e-07
4.279223877485155e-05
2.598753882747397e-07
4.2829254940755e-05
3.100937490084456e-07
4.287149749659725e-05
3.56630513769161e-07
4.291836722937663e-05
3.993237848387652e-07
4.296926523747905e-05
4.380921679238066e-07
4.302360725870884e-05
4.728872592853271e-07
4.308085627296178e-05
5.036678911232569e-07
4.314047080377549e-05
5.303504892897228e-07
4.320192286644069e-05
5.527766142692235e-07
4.326475382555031e-05
5.707348756358566e-07
4.332861781361105e-05
5.84082065795595e-07
4.339321420604438e-05
5.927898135344229e-07
4.345828182697144e-05
5.969394239136085e-07
4.35235981988067e-05
5.967146782401257e-07
4.35889755858182e-05
5.92396629833814e-07
4.365425947781572e-05
5.843502979691987e-07
4.371931867600157e-05
5.730090237941767e-07
4.378407169013453e-05
5.588667062806708e-07
4.384842105821292e-05
5.424435051836496e-07
4.391236896851912e-05
5.242966500839605e-07
4.397579374956585e-05
5.049284761915762e-07
4.403873721793922e-05
4.84877110023723e-07
4.410110181969413e-05
4.644189699545565e-07
4.416295533583547e-05
4.440270109832128e-07
4.42242201215754e-05
4.237386640075584e-07
4.428499827764747e-05
4.039937084716755e-07
4.434521973675554e-05
3.846999575655574e-07
4.440497209810036e-05
3.664068427055169e-07
4.446416090351941e-05
3.489866860829591e-07
4.45228157536749e-05
3.331426645703544e-07
4.45807847262011e-05
3.1871842565424e-07
4.463800038514975e-05
3.065159908440511e-07
4.469422910501659e-05
2.96342955248032e-07
4.474933242705594e-05
2.889200680223794e-07
4.480296522981815e-05
2.842151813360328e-07
2.818518294194313e-07
4.485504421125326e-05
4.27066767846814e-05
2.628116691403624e-08
4.271642168171291e-05
8.068473334998242e-08
4.273253427793834e-05
1.334247200161024e-07
4.275476661842895e-05
1.839997870448112e-07
4.278274953638171e-05
2.318918077137916e-07
4.281605533244921e-05
2.767872056373675e-07
4.285422417436636e-05
3.184608729106707e-07
4.289674743867372e-05
3.567997071796452e-07
4.294310263319196e-05
3.917361865070598e-07
4.29927757195199e-05
4.23213456794896e-07
4.304527803818529e-05
4.511649740900496e-07
4.31001471118604e-05
4.754809845396401e-07
4.315694531862489e-05
4.959781949682489e-07
4.321526114576427e-05
5.124191068353997e-07
4.32747501661209e-05
5.245934274813193e-07
4.333514297155973e-05
5.323977664067652e-07
4.339622105845526e-05
5.358625229053004e-07
4.345779821661207e-05
5.351391827744634e-07
4.351971729800279e-05
5.304797341629104e-07
4.358185066686753e-05
5.222196801633431e-07
4.364409667408699e-05
5.107663702512166e-07
4.370637935025708e-05
4.965880177558564e-07
4.376863430312445e-05
4.801931983006396e-07
4.38308257090526e-05
4.621105649491816e-07