/*--------------------------------*- C++ -*----------------------------------*\
| =========                 |                                                 |
| \\      /  F ield         | OpenFOAM: The Open Source CFD Toolbox           |
|  \\    /   O peration     | Version:  2206                                  |
|   \\  /    A nd           | Website:  www.openfoam.com                      |
|    \\/     M anipulation  |                                                 |
\*---------------------------------------------------------------------------*/
FoamFile
{
    version     2.0;
    format      ascii;
    arch        "LSB;label=32;scalar=64";
    class       pointVectorField;
    location    "2";
    object      pointDisplacement;
}
// * * * * * * * * * * * * * * * * * * * * * * * * * * * * * * * * * * * * * //

dimensions      [0 1 0 0 0 0 0];

internalField   nonuniform List<vector> 
36854
(
(0 0 0)
(0 0 0)
(0 0 0)
(0 0 0)
(0 0 0)
(0 0 0)
(0 0 0)
(0 0 0)
(0 0 0)
(0 0 0)
(0 0 0)
(0 0 0)
(0 0 0)
(0 0 0)
(0 0 0)
(0 0 0)
(0 0 0)
(0 0 0)
(0 0 0)
(0 0 0)
(0 0 0)
(0 0 0)
(0 0 0)
(0 0 0)
(0 0 0)
(0 0 0)
(0 0 0)
(0 0 0)
(0 0 0)
(0 0 0)
(0 0 0)
(0 0 0)
(0 0 0)
(0 0 0)
(0 0 0)
(0 0 0)
(0 0 0)
(0 0 0)
(0 0 0)
(0 0 0)
(0 0 0)
(0 0 0)
(0 1.307798692369432e-09 0)
(0 2.599359052601165e-09 0)
(0 3.87500746182443e-09 0)
(0 5.135057352016984e-09 0)
(0 6.379774134394692e-09 0)
(0 7.609376797161068e-09 0)
(0 8.824026943779848e-09 0)
(0 1.002381708502253e-08 0)
(0 1.120875902992264e-08 0)
(0 1.237877272608854e-08 0)
(0 1.353367573009081e-08 0)
(0 1.467317342981151e-08 0)
(0 1.579685012373841e-08 0)
(0 1.690416106268894e-08 0)
(0 1.799442556761378e-08 0)
(0 1.906682134853202e-08 0)
(0 2.012038016189145e-08 0)
(0 2.115398495513916e-08 0)
(0 2.216636865675637e-08 0)
(0 2.31561147763025e-08 0)
(0 2.41216599810247e-08 0)
(0 2.50612988122553e-08 0)
(0 2.597319069515851e-08 0)
(0 2.685536937855743e-08 0)
(0 2.770575491695402e-08 0)
(0 2.852216827419039e-08 0)
(0 2.930234858768995e-08 0)
(0 3.004397308470203e-08 0)
(0 3.074467958914634e-08 0)
(0 3.140209150223897e-08 0)
(0 3.201384508629544e-08 0)
(0 3.257761883516281e-08 0)
(0 3.309116468582224e-08 0)
(0 3.355234082739407e-08 0)
(0 3.395914591469816e-08 0)
(0 3.430975461087778e-08 0)
(0 3.46025545353971e-08 0)
(0 3.483618455363183e-08 0)
(0 3.5009571553186e-08 0)
(0 3.507846884622934e-08 0)
(0 0 0)
(0 2.599379978100149e-09 0)
(0 5.165748288928185e-09 0)
(0 7.699713807342087e-09 0)
(0 1.020188291360484e-08 0)
(0 1.267277824777486e-08 0)
(0 1.511283463609095e-08 0)
(0 1.752237529638715e-08 0)
(0 1.990158813182592e-08 0)
(0 2.225050275950721e-08 0)
(0 2.456896864998511e-08 0)
(0 2.685663462526656e-08 0)
(0 2.911292991202624e-08 0)
(0 3.133704693531918e-08 0)
(0 3.352792604642291e-08 0)
(0 3.568424239655076e-08 0)
(0 3.780439519050436e-08 0)
(0 3.988649957737373e-08 0)
(0 4.192838145655208e-08 0)
(0 4.392757549439312e-08 0)
(0 4.588132665772437e-08 0)
(0 4.778659557313624e-08 0)
(0 4.964006801355375e-08 0)
(0 5.143816879428623e-08 0)
(0 5.31770803280145e-08 0)
(0 5.485276604092914e-08 0)
(0 5.646099879003562e-08 0)
(0 5.799739434491023e-08 0)
(0 5.945744990751719e-08 0)
(0 6.083658754415431e-08 0)
(0 6.213020229915006e-08 0)
(0 6.333371465808e-08 0)
(0 6.444262693995655e-08 0)
(0 6.545258313932662e-08 0)
(0 6.635943173564247e-08 0)
(0 6.715929108041717e-08 0)
(0 6.784861723988022e-08 0)
(0 6.842427478121483e-08 0)
(0 6.888361241760621e-08 0)
(0 6.922454830048634e-08 0)
(0 6.936251817047228e-08 0)
(0 0 0)
(0 3.875062737957345e-09 0)
(0 7.699761868206505e-09 0)
(0 1.147499194471824e-08 0)
(0 1.520165310674842e-08 0)
(0 1.888053104060454e-08 0)
(0 2.251228528838554e-08 0)
(0 2.609741205116487e-08 0)
(0 2.963620839476668e-08 0)
(0 3.312873813461516e-08 0)
(0 3.657479966045249e-08 0)
(0 3.997389593563698e-08 0)
(0 4.332520689856526e-08 0)
(0 4.662756450495082e-08 0)
(0 4.98794306734266e-08 0)
(0 5.307887842785314e-08 0)
(0 5.622357656358733e-08 0)
(0 5.931077819838644e-08 0)
(0 6.233731359860301e-08 0)
(0 6.529958769505869e-08 0)
(0 6.819358271771074e-08 0)
(0 7.101486638121518e-08 0)
(0 7.375860604208514e-08 0)
(0 7.641958921987338e-08 0)
(0 7.899225082756877e-08 0)
(0 8.147070738867355e-08 0)
(0 8.384879842957476e-08 0)
(0 8.612013512638321e-08 0)
(0 8.827815615748364e-08 0)
(0 9.031619057065733e-08 0)
(0 9.222752732327412e-08 0)
(0 9.400549100517969e-08 0)
(0 9.56435231199386e-08 0)
(0 9.713526819997059e-08 0)
(0 9.847466399241277e-08 0)
(0 9.965603501789018e-08 0)
(0 1.006741890446843e-07 0)
(0 1.015245165605074e-07 0)
(0 1.02203094376173e-07 0)
(0 1.027067947253166e-07 0)
(0 1.029120842955187e-07 0)
(0 0 0)
(0 5.135153472273272e-09 0)
(0 1.0201992633694e-08 0)
(0 1.520172220284177e-08 0)
(0 2.013555626792918e-08 0)
(0 2.500456380422141e-08 0)
(0 2.980965027323593e-08 0)
(0 3.455150740289072e-08 0)
(0 3.9230565580716e-08 0)
(0 4.384694892372516e-08 0)
(0 4.840043318099698e-08 0)
(0 5.289040666968215e-08 0)
(0 5.731583447992146e-08 0)
(0 6.167522622144554e-08 0)
(0 6.59666076265958e-08 0)
(0 7.018749636974235e-08 0)
(0 7.433488250902594e-08 0)
(0 7.840521400011692e-08 0)
(0 8.239438777022346e-08 0)
(0 8.629774687073468e-08 0)
(0 9.011008424539317e-08 0)
(0 9.382565365443581e-08 0)
(0 9.743818828044641e-08 0)
(0 1.009409275056404e-07 0)
(0 1.043266522902942e-07 0)
(0 1.075877294960719e-07 0)
(0 1.10716165385156e-07 0)
(0 1.137036683868635e-07 0)
(0 1.165417210601183e-07 0)
(0 1.192216609973423e-07 0)
(0 1.217347702202603e-07 0)
(0 1.240723724210868e-07 0)
(0 1.262259372174416e-07 0)
(0 1.281871904338971e-07 0)
(0 1.299482293194896e-07 0)
(0 1.315016415848075e-07 0)
(0 1.328406272176181e-07 0)
(0 1.339591221970376e-07 0)
(0 1.348519232550862e-07 0)
(0 1.355148095914572e-07 0)
(0 1.357863601378448e-07 0)
(0 0 0)
(0 6.379910905214487e-09 0)
(0 1.267295020901037e-08 0)
(0 1.888067128751051e-08 0)
(0 2.500463679568351e-08 0)
(0 3.104623234709974e-08 0)
(0 3.700664228609942e-08 0)
(0 4.288678711566918e-08 0)
(0 4.868726455783293e-08 0)
(0 5.440829423477125e-08 0)
(0 6.004966606876782e-08 0)
(0 6.561069257503203e-08 0)
(0 7.109016528382258e-08 0)
(0 7.648631558727557e-08 0)
(0 8.17967803655031e-08 0)
(0 8.701857280595729e-08 0)
(0 9.214805888809697e-08 0)
(0 9.718094005951606e-08 0)
(0 1.021122426768481e-07 0)
(0 1.069363148215355e-07 0)
(0 1.11646831123295e-07 0)
(0 1.162368062290024e-07 0)
(0 1.206986175379076e-07 0)
(0 1.250240377819245e-07 0)
(0 1.29204277958962e-07 0)
(0 1.332300410253976e-07 0)
(0 1.370915866194998e-07 0)
(0 1.407788069211275e-07 0)
(0 1.442813135566222e-07 0)
(0 1.475885352362085e-07 0)
(0 1.506898255719502e-07 0)
(0 1.535745802778958e-07 0)
(0 1.562323627139103e-07 0)
(0 1.586530365164524e-07 0)
(0 1.608269038791295e-07 0)
(0 1.627448479141329e-07 0)
(0 1.643984774324376e-07 0)
(0 1.657802723412216e-07 0)
(0 1.668837273199936e-07 0)
(0 1.67703486715854e-07 0)
(0 1.680410471373142e-07 0)
(0 0 0)
(0 7.609547544220192e-09 0)
(0 1.511305685052093e-08 0)
(0 2.251248048423173e-08 0)
(0 2.980977661652197e-08 0)
(0 3.700669261237523e-08 0)
(0 4.410473554861663e-08 0)
(0 5.110509796689883e-08 0)
(0 5.800858814758481e-08 0)
(0 6.481556487849106e-08 0)
(0 7.15258767911931e-08 0)
(0 7.813880642317461e-08 0)
(0 8.465301924215593e-08 0)
(0 9.106651794393468e-08 0)
(0 9.737660240894916e-08 0)
(0 1.035798357753879e-07 0)
(0 1.096720171564563e-07 0)
(0 1.15648161593884e-07 0)
(0 1.215024878957756e-07 0)
(0 1.272284150508262e-07 0)
(0 1.328185679387296e-07 0)
(0 1.382647930640296e-07 0)
(0 1.435581850233138e-07 0)
(0 1.486891243692661e-07 0)
(0 1.536473274558034e-07 0)
(0 1.584219087332136e-07 0)
(0 1.630014558089831e-07 0)
(0 1.673741173986329e-07 0)
(0 1.71527704063333e-07 0)
(0 1.754498013719751e-07 0)
(0 1.79127894842347e-07 0)
(0 1.825495057197353e-07 0)
(0 1.857023363549836e-07 0)
(0 1.885744236624989e-07 0)
(0 1.911542988853084e-07 0)
(0 1.934311516749296e-07 0)
(0 1.953949962915199e-07 0)
(0 1.970368374573251e-07 0)
(0 1.983488327197929e-07 0)
(0 1.99324442920071e-07 0)
(0 1.997285836773262e-07 0)
(0 0 0)
(0 8.824218668500273e-09 0)
(0 1.75226235548843e-08 0)
(0 2.609762831729572e-08 0)
(0 3.455164477664648e-08 0)
(0 4.288683787498576e-08 0)
(0 5.11050912906493e-08 0)
(0 5.920792213897368e-08 0)
(0 6.719640101192067e-08 0)
(0 7.507107732855496e-08 0)
(0 8.283191005563755e-08 0)
(0 9.047820394586227e-08 0)
(0 9.800855152883965e-08 0)
(0 1.054207811769857e-07 0)
(0 1.127119116548642e-07 0)
(0 1.198781136452502e-07 0)
(0 1.269146788263228e-07 0)
(0 1.338159971492763e-07 0)
(0 1.405755430309352e-07 0)
(0 1.47185871227788e-07 0)
(0 1.536386231918531e-07 0)
(0 1.599245447202562e-07 0)
(0 1.660335156944039e-07 0)
(0 1.719545926562843e-07 0)
(0 1.776760648841329e-07 0)
(0 1.831855245035998e-07 0)
(0 1.884699510009879e-07 0)
(0 1.935158102911991e-07 0)
(0 1.983091682361592e-07 0)
(0 2.028358182140333e-07 0)
(0 2.0708142201312e-07 0)
(0 2.110316629779595e-07 0)
(0 2.146724099829849e-07 0)
(0 2.179898904668873e-07 0)
(0 2.20970870443988e-07 0)
(0 2.236028391268899e-07 0)
(0 2.258741955395139e-07 0)
(0 2.277744342058768e-07 0)
(0 2.292943263696234e-07 0)
(0 2.304260876096579e-07 0)
(0 2.308982409635023e-07 0)
(0 0 0)
(0 1.002401055825273e-08 0)
(0 1.990182622840924e-08 0)
(0 2.963639457086128e-08 0)
(0 3.923064959133222e-08 0)
(0 4.868723950016776e-08 0)
(0 5.800848766506306e-08 0)
(0 6.719629684312092e-08 0)
(0 7.625205953252681e-08 0)
(0 8.517657440490622e-08 0)
(0 9.396996886250082e-08 0)
(0 1.026316278554869e-07 0)
(0 1.111601291900174e-07 0)
(0 1.19553185654813e-07 0)
(0 1.278075943917332e-07 0)
(0 1.35919194031874e-07 0)
(0 1.43882830211022e-07 0)
(0 1.516923301637817e-07 0)
(0 1.59340487170859e-07 0)
(0 1.668190556946858e-07 0)
(0 1.741187580801378e-07 0)
(0 1.812293037143958e-07 0)
(0 1.881394215275548e-07 0)
(0 1.948369066678184e-07 0)
(0 2.013086820966217e-07 0)
(0 2.07540875715037e-07 0)
(0 2.135189134496928e-07 0)
(0 2.192276284923355e-07 0)
(0 2.246513866027335e-07 0)
(0 2.29774227053689e-07 0)
(0 2.345800184270986e-07 0)
(0 2.390526280729846e-07 0)
(0 2.431761036348855e-07 0)
(0 2.469348646437606e-07 0)
(0 2.503139018087436e-07 0)
(0 2.532989813044435e-07 0)
(0 2.558768510770451e-07 0)
(0 2.580354459221302e-07 0)
(0 2.597640875465775e-07 0)
(0 2.610536699020147e-07 0)
(0 2.615961922785029e-07 0)
(0 0 0)
(0 1.120892880864283e-08 0)
(0 2.225068256261633e-08 0)
(0 3.312882594537207e-08 0)
(0 4.384689341145712e-08 0)
(0 5.440809124647703e-08 0)
(0 6.48152540632405e-08 0)
(0 7.507073914037729e-08 0)
(0 8.517632763525004e-08 0)
(0 9.513313260616683e-08 0)
(0 1.049415138646232e-07 0)
(0 1.146009997749815e-07 0)
(0 1.241102162223439e-07 0)
(0 1.33466823076453e-07 0)
(0 1.42667458587833e-07 0)
(0 1.517076922596599e-07 0)
(0 1.605819868423186e-07 0)
(0 1.692836701940879e-07 0)
(0 1.778049178371692e-07 0)
(0 1.861367471089922e-07 0)
(0 1.942690238594478e-07 0)
(0 2.021904826698598e-07 0)
(0 2.098887615630978e-07 0)
(0 2.173504521299266e-07 0)
(0 2.245611659081591e-07 0)
(0 2.315056177125455e-07 0)
(0 2.381677264197349e-07 0)
(0 2.445307334609612e-07 0)
(0 2.50577338964846e-07 0)
(0 2.562898551268809e-07 0)
(0 2.616503759681509e-07 0)
(0 2.666409621961417e-07 0)
(0 2.712438394128223e-07 0)
(0 2.754416074524044e-07 0)
(0 2.792174581998823e-07 0)
(0 2.82555398869283e-07 0)
(0 2.854404774278015e-07 0)
(0 2.878590066136515e-07 0)
(0 2.897987825398594e-07 0)
(0 2.912492876044766e-07 0)
(0 2.91865538521203e-07 0)
(0 0 0)
(0 1.23788870785115e-08 0)
(0 2.456902999106827e-08 0)
(0 3.657470360871547e-08 0)
(0 4.840013016153169e-08 0)
(0 6.004915720953612e-08 0)
(0 7.152520990205928e-08 0)
(0 8.283117601706013e-08 0)
(0 9.396929860209842e-08 0)
(0 1.049410761103748e-07 0)
(0 1.157471700186228e-07 0)
(0 1.263873200186096e-07 0)
(0 1.368602669867183e-07 0)
(0 1.471636840534559e-07 0)
(0 1.572941162140446e-07 0)
(0 1.672469290398203e-07 0)
(0 1.77016267165107e-07 0)
(0 1.86595023332248e-07 0)
(0 1.959748188747281e-07 0)
(0 2.051459966003399e-07 0)
(0 2.140976270979474e-07 0)
(0 2.228175295266918e-07 0)
(0 2.312923079488779e-07 0)
(0 2.395074042301857e-07 0)
(0 2.474471684458682e-07 0)
(0 2.550949475920573e-07 0)
(0 2.624331932007567e-07 0)
(0 2.694435881907817e-07 0)
(0 2.761071929526688e-07 0)
(0 2.824046102651136e-07 0)
(0 2.883161681805663e-07 0)
(0 2.938221195111829e-07 0)
(0 2.989028560133565e-07 0)
(0 3.035391348368048e-07 0)
(0 3.077123143065441e-07 0)
(0 3.114045956812977e-07 0)
(0 3.145992672143675e-07 0)
(0 3.172809466245708e-07 0)
(0 3.194358177045931e-07 0)
(0 3.210518502088546e-07 0)
(0 3.217462823664072e-07 0)
(0 0 0)
(0 1.353369645459387e-08 0)
(0 2.685650497518101e-08 0)
(0 3.997351287714717e-08 0)
(0 5.288972585059804e-08 0)
(0 6.560972358178683e-08 0)
(0 7.813760804269631e-08 0)
(0 9.047687986549442e-08 0)
(0 1.026303230108583e-07 0)
(0 1.145998975679903e-07 0)
(0 1.263866406285815e-07 0)
(0 1.3799057529263e-07 0)
(0 1.494106279875504e-07 0)
(0 1.606445544104849e-07 0)
(0 1.716888745344394e-07 0)
(0 1.825388172490937e-07 0)
(0 1.93188275333979e-07 0)
(0 2.036297715818876e-07 0)
(0 2.138544370000551e-07 0)
(0 2.238520021113258e-07 0)
(0 2.336108024518765e-07 0)
(0 2.431177994099382e-07 0)
(0 2.52358617564232e-07 0)
(0 2.613175996536024e-07 0)
(0 2.699778802320472e-07 0)
(0 2.783214789272469e-07 0)
(0 2.863294140174569e-07 0)
(0 2.939818367642309e-07 0)
(0 3.012581865824642e-07 0)
(0 3.081373666943065e-07 0)
(0 3.145979394049414e-07 0)
(0 3.206183395688982e-07 0)
(0 3.261771042072252e-07 0)
(0 3.31253115620209e-07 0)
(0 3.35825854758977e-07 0)
(0 3.398756611219366e-07 0)
(0 3.433839950783915e-07 0)
(0 3.463336983037079e-07 0)
(0 3.487092477023946e-07 0)
(0 3.504969913736031e-07 0)
(0 3.512752464311767e-07 0)
(0 0 0)
(0 1.467305555367028e-08 0)
(0 2.911252381684875e-08 0)
(0 4.332441525533376e-08 0)
(0 5.731462229425936e-08 0)
(0 7.108855446875512e-08 0)
(0 8.465108308340905e-08 0)
(0 9.800640961314699e-08 0)
(0 1.111579430437369e-07 0)
(0 1.241081859221288e-07 0)
(0 1.368586290047456e-07 0)
(0 1.494096545200801e-07 0)
(0 1.617604481976268e-07 0)
(0 1.739089203556273e-07 0)
(0 1.858516364827854e-07 0)
(0 1.975837578914349e-07 0)
(0 2.090989931588559e-07 0)
(0 2.203895612063962e-07 0)
(0 2.314461669890822e-07 0)
(0 2.422579908771059e-07 0)
(0 2.528126928996297e-07 0)
(0 2.630964330844093e-07 0)
(0 2.730939091562601e-07 0)
(0 2.827884128446659e-07 0)
(0 2.921619059860441e-07 0)
(0 3.011951174787793e-07 0)
(0 3.098676619484398e-07 0)
(0 3.181581806967277e-07 0)
(0 3.260445051330759e-07 0)
(0 3.335038424188844e-07 0)
(0 3.405129824939628e-07 0)
(0 3.470485250143518e-07 0)
(0 3.530871240330393e-07 0)
(0 3.586057475358399e-07 0)
(0 3.635819482534859e-07 0)
(0 3.679941415701006e-07 0)
(0 3.718218859057973e-07 0)
(0 3.750461607062478e-07 0)
(0 3.776496369370911e-07 0)
(0 3.796169280321133e-07 0)
(0 3.804859326201127e-07 0)
(0 0 0)
(0 1.579654146853471e-08 0)
(0 3.133626518501716e-08 0)
(0 4.662622307725297e-08 0)
(0 6.167330432511098e-08 0)
(0 7.648385206369757e-08 0)
(0 9.106360484664038e-08 0)
(0 1.054175578345735e-07 0)
(0 1.195498335091224e-07 0)
(0 1.334635616050018e-07 0)
(0 1.471607680860462e-07 0)
(0 1.606422731333493e-07 0)
(0 1.739075982626343e-07 0)
(0 1.869548828411832e-07 0)
(0 1.997808104298182e-07 0)
(0 2.123805455302493e-07 0)
(0 2.247476814700755e-07 0)
(0 2.368742003040176e-07 0)
(0 2.48750445747179e-07 0)
(0 2.603651102801539e-07 0)
(0 2.717052376714754e-07 0)
(0 2.827562422438733e-07 0)
(0 2.935019462592437e-07 0)
(0 3.039246368036791e-07 0)
(0 3.140051435072578e-07 0)
(0 3.237229383209814e-07 0)
(0 3.330562583817771e-07 0)
(0 3.419822527123501e-07 0)
(0 3.504771531140374e-07 0)
(0 3.585164691095313e-07 0)
(0 3.660752061769626e-07 0)
(0 3.731281057958588e-07 0)
(0 3.796499050209127e-07 0)
(0 3.85615612450008e-07 0)
(0 3.910007966161096e-07 0)
(0 3.957818820849403e-07 0)
(0 3.999364479724091e-07 0)
(0 4.034435232838611e-07 0)
(0 4.062838733118616e-07 0)
(0 4.084402643843991e-07 0)
(0 4.094083200961371e-07 0)
(0 0 0)
(0 1.690360166438631e-08 0)
(0 3.352665455215704e-08 0)
(0 4.987737701420242e-08 0)
(0 6.59637708119939e-08 0)
(0 8.179322154336805e-08 0)
(0 9.737243745706814e-08 0)
(0 1.127073042702603e-07 0)
(0 1.278027500225671e-07 0)
(0 1.426626195737381e-07 0)
(0 1.572895585020929e-07 0)
(0 1.716849063185537e-07 0)
(0 1.858485990742194e-07 0)
(0 1.997790816059946e-07 0)
(0 2.134732298328184e-07 0)
(0 2.269262836825953e-07 0)
(0 2.401317913948831e-07 0)
(0 2.530815661043548e-07 0)
(0 2.657656557620942e-07 0)
(0 2.781723275922303e-07 0)
(0 2.902880684055233e-07 0)
(0 3.020976021931503e-07 0)
(0 3.135839264951791e-07 0)
(0 3.247283690690734e-07 0)
(0 3.355106663616728e-07 0)
(0 3.459090651987313e-07 0)
(0 3.559004489324913e-07 0)
(0 3.654604890119897e-07 0)
(0 3.74563822545332e-07 0)
(0 3.831842558934807e-07 0)
(0 3.912949936631282e-07 0)
(0 3.988688916548425e-07 0)
(0 4.058787313906708e-07 0)
(0 4.122975128325724e-07 0)
(0 4.180987608742139e-07 0)
(0 4.23256840235893e-07 0)
(0 4.277472726334033e-07 0)
(0 4.315470496523092e-07 0)
(0 4.346349346443113e-07 0)
(0 4.369917401627028e-07 0)
(0 4.380686004067691e-07 0)
(0 0 0)
(0 1.799354694045655e-08 0)
(0 3.568235075481601e-08 0)
(0 5.307592674733344e-08 0)
(0 7.018350985421102e-08 0)
(0 8.701364110791465e-08 0)
(0 1.035741044811915e-07 0)
(0 1.198717762632388e-07 0)
(0 1.359124848922451e-07 0)
(0 1.517008807602926e-07 0)
(0 1.672403156746777e-07 0)
(0 1.825327318336923e-07 0)
(0 1.975785603528866e-07 0)
(0 2.123766295581373e-07 0)
(0 2.269240834429102e-07 0)
(0 2.412163108673889e-07 0)
(0 2.552468862550393e-07 0)
(0 2.69007522715844e-07 0)
(0 2.824880386926107e-07 0)
(0 2.956763393844128e-07 0)
(0 3.085584143453119e-07 0)
(0 3.21118352781428e-07 0)
(0 3.33338378167521e-07 0)
(0 3.451989038652751e-07 0)
(0 3.56678611436051e-07 0)
(0 3.677545532840927e-07 0)
(0 3.784022811216899e-07 0)
(0 3.885960014922826e-07 0)
(0 3.983087591963235e-07 0)
(0 4.075126489145218e-07 0)
(0 4.161790545961857e-07 0)
(0 4.242789152702703e-07 0)
(0 4.317830148552768e-07 0)
(0 4.386622923289139e-07 0)
(0 4.448881673396746e-07 0)
(0 4.504328751084218e-07 0)
(0 4.552698034281614e-07 0)
(0 4.593738239128152e-07 0)
(0 4.627216095322752e-07 0)
(0 4.652919239507046e-07 0)
(0 4.664888493153167e-07 0)
(0 0 0)
(0 1.906554558291244e-08 0)
(0 3.780173491444255e-08 0)
(0 5.6219515135622e-08 0)
(0 7.432947856244035e-08 0)
(0 9.214143764574302e-08 0)
(0 1.096643606689169e-07 0)
(0 1.26906216706054e-07 0)
(0 1.438738313477002e-07 0)
(0 1.605727526158929e-07 0)
(0 1.770071266773521e-07 0)
(0 1.931795831546738e-07 0)
(0 2.090911300286133e-07 0)
(0 2.247410583187171e-07 0)
(0 2.401268569235391e-07 0)
(0 2.55244138194391e-07 0)
(0 2.700865750070019e-07 0)
(0 2.846458502824694e-07 0)
(0 2.989116200909978e-07 0)
(0 3.128714916470895e-07 0)
(0 3.265110176700167e-07 0)
(0 3.398137087338961e-07 0)
(0 3.527610653606408e-07 0)
(0 3.653326317064604e-07 0)
(0 3.775060727444516e-07 0)
(0 3.892572768333673e-07 0)
(0 4.005604854617371e-07 0)
(0 4.113884517377139e-07 0)
(0 4.21712628824833e-07 0)
(0 4.315033889673928e-07 0)
(0 4.407302729749462e-07 0)
(0 4.493622690225829e-07 0)
(0 4.573681183715034e-07 0)
(0 4.647166441530056e-07 0)
(0 4.713770977604982e-07 0)
(0 4.773195157820831e-07 0)
(0 4.825150789653763e-07 0)
(0 4.869364636998894e-07 0)
(0 4.905581762924252e-07 0)
(0 4.933568541693958e-07 0)
(0 4.946866369830967e-07 0)
(0 0 0)
(0 2.011861884689869e-08 0)
(0 3.988290197692209e-08 0)
(0 5.930536624249978e-08 0)
(0 7.839808788051123e-08 0)
(0 9.717226855685863e-08 0)
(0 1.156381709006628e-07 0)
(0 1.338049601643514e-07 0)
(0 1.516805568354094e-07 0)
(0 1.692714995268585e-07 0)
(0 1.865828176805381e-07 0)
(0 2.036179138256932e-07 0)
(0 2.203784553439918e-07 0)
(0 2.368642758999851e-07 0)
(0 2.530732869024709e-07 0)
(0 2.690013995666956e-07 0)
(0 2.84642458349456e-07 0)
(0 2.999881867285862e-07 0)
(0 3.15028146494603e-07 0)
(0 3.297497119145622e-07 0)
(0 3.441380603147713e-07 0)
(0 3.581761808067634e-07 0)
(0 3.718449030443535e-07 0)
(0 3.851229480396974e-07 0)
(0 3.979870031692771e-07 0)
(0 4.104118235465361e-07 0)
(0 4.223703618988736e-07 0)
(0 4.3383392892681e-07 0)
(0 4.447723857983905e-07 0)
(0 4.551543698925987e-07 0)
(0 4.649475541014668e-07 0)
(0 4.741189388895457e-07 0)
(0 4.826351748699134e-07 0)
(0 4.90462911902633e-07 0)
(0 4.975691687222533e-07 0)
(0 5.039217149921654e-07 0)
(0 5.094894556879839e-07 0)
(0 5.142428061782402e-07 0)
(0 5.181540459016309e-07 0)
(0 5.211976328040381e-07 0)
(0 5.226745802672369e-07 0)
(0 0 0)
(0 2.115163791638662e-08 0)
(0 4.192365514909451e-08 0)
(0 6.233027761243852e-08 0)
(0 8.238519293833182e-08 0)
(0 1.021011103125297e-07 0)
(0 1.214896969964148e-07 0)
(0 1.405614179053997e-07 0)
(0 1.593253861766832e-07 0)
(0 1.777892239615384e-07 0)
(0 1.959589329046154e-07 0)
(0 2.138387739987585e-07 0)
(0 2.314311567276662e-07 0)
(0 2.487365376298589e-07 0)
(0 2.657533286355565e-07 0)
(0 2.824778157432416e-07 0)
(0 2.989040888151465e-07 0)
(0 3.150239834812278e-07 0)
(0 3.308270363500692e-07 0)
(0 3.463004549331966e-07 0)
(0 3.614291038966517e-07 0)
(0 3.76195509459286e-07 0)
(0 3.90579883957875e-07 0)
(0 4.045601727879264e-07 0)
(0 4.181121260935616e-07 0)
(0 4.312093976999628e-07 0)
(0 4.438236738273141e-07 0)
(0 4.559248340534239e-07 0)
(0 4.674811467475385e-07 0)
(0 4.784595007123869e-07 0)
(0 4.88825673970009e-07 0)
(0 4.985446394367955e-07 0)
(0 5.075809056004056e-07 0)
(0 5.158988882227421e-07 0)
(0 5.234633066025018e-07 0)
(0 5.302395951839041e-07 0)
(0 5.36194318559548e-07 0)
(0 5.412955756295028e-07 0)
(0 5.455133777195833e-07 0)
(0 5.488199800471767e-07 0)
(0 5.504598438311135e-07 0)
(0 0 0)
(0 2.216332249899452e-08 0)
(0 4.392150352569362e-08 0)
(0 6.529061720975474e-08 0)
(0 8.628608945284033e-08 0)
(0 1.069222543615784e-07 0)
(0 1.272122930821253e-07 0)
(0 1.471680726062381e-07 0)
(0 1.667999954383224e-07 0)
(0 1.861168592728944e-07 0)
(0 2.051257260796099e-07 0)
(0 2.238318002364015e-07 0)
(0 2.422383155898335e-07 0)
(0 2.603464315553632e-07 0)
(0 2.781551385989128e-07 0)
(0 2.956611736655128e-07 0)
(0 3.128589463417074e-07 0)
(0 3.297404767573716e-07 0)
(0 3.462953464515346e-07 0)
(0 3.625106636480736e-07 0)
(0 3.783710446131283e-07 0)
(0 3.938586129985508e-07 0)
(0 4.08953019314727e-07 0)
(0 4.23631482918284e-07 0)
(0 4.378688591363507e-07 0)
(0 4.516377343609509e-07 0)
(0 4.649085521037848e-07 0)
(0 4.776497730553526e-07 0)
(0 4.898280720752264e-07 0)
(0 5.014085746631727e-07 0)
(0 5.12355134716546e-07 0)
(0 5.226306541527573e-07 0)
(0 5.321974431635118e-07 0)
(0 5.410176174098081e-07 0)
(0 5.490535253867792e-07 0)
(0 5.562681956356336e-07 0)
(0 5.626257897753604e-07 0)
(0 5.680920440359066e-07 0)
(0 5.726346802682874e-07 0)
(0 5.762237621361074e-07 0)
(0 5.780436016230432e-07 0)
(0 0 0)
(0 2.31522412179864e-08 0)
(0 4.587366320858349e-08 0)
(0 6.818232544300708e-08 0)
(0 9.009551670759937e-08 0)
(0 1.116293110104924e-07 0)
(0 1.327985102297718e-07 0)
(0 1.536164835423041e-07 0)
(0 1.740950173993781e-07 0)
(0 1.942441751226884e-07 0)
(0 2.140721654620039e-07 0)
(0 2.335852197160737e-07 0)
(0 2.527874772708154e-07 0)
(0 2.71680879653763e-07 0)
(0 2.902650734415821e-07 0)
(0 3.085373225891087e-07 0)
(0 3.264924309753256e-07 0)
(0 3.441226761862604e-07 0)
(0 3.614177557802038e-07 0)
(0 3.783647475111136e-07 0)
(0 3.949480852266373e-07 0)
(0 4.111495524131674e-07 0)
(0 4.269482956363074e-07 0)
(0 4.423208604230057e-07 0)
(0 4.57241252447808e-07 0)
(0 4.716810272069809e-07 0)
(0 4.856094116622717e-07 0)
(0 4.989934615608397e-07 0)
(0 5.117982582109261e-07 0)
(0 5.23987148302094e-07 0)
(0 5.355220297578561e-07 0)
(0 5.463636854245879e-07 0)
(0 5.564721644575627e-07 0)
(0 5.658072084249479e-07 0)
(0 5.74328715377839e-07 0)
(0 5.819972305734694e-07 0)
(0 5.887744475953891e-07 0)
(0 5.946236990608123e-07 0)
(0 5.995104135025099e-07 0)
(0 6.034025098497482e-07 0)
(0 6.054204754405901e-07 0)
(0 0 0)
(0 2.41168139641554e-08 0)
(0 4.777706221988738e-08 0)
(0 7.100092269689732e-08 0)
(0 9.380766763926807e-08 0)
(0 1.162152219020215e-07 0)
(0 1.382401110859254e-07 0)
(0 1.598973030585704e-07 0)
(0 1.812000595030524e-07 0)
(0 2.021597965056025e-07 0)
(0 2.227859534806506e-07 0)
(0 2.430858700079235e-07 0)
(0 2.630646704214696e-07 0)
(0 2.827251562454139e-07 0)
(0 3.020677068164698e-07 0)
(0 3.210901886699449e-07 0)
(0 3.397878744960497e-07 0)
(0 3.581533726997258e-07 0)
(0 3.761765688243413e-07 0)
(0 3.938445803335475e-07 0)
(0 4.111417264943115e-07 0)
(0 4.280495153771681e-07 0)
(0 4.445466502974013e-07 0)
(0 4.60609058372481e-07 0)
(0 4.762099442718023e-07 0)
(0 4.913198726805949e-07 0)
(0 5.059068834703508e-07 0)
(0 5.19936644016703e-07 0)
(0 5.333726434481131e-07 0)
(0 5.461764337113987e-07 0)
(0 5.583079220117767e-07 0)
(0 5.697257181785632e-07 0)
(0 5.803875385406805e-07 0)
(0 5.902506647035194e-07 0)
(0 5.992724510481287e-07 0)
(0 6.074108689291758e-07 0)
(0 6.146250689710385e-07 0)
(0 6.208759367446904e-07 0)
(0 6.261266137933349e-07 0)
(0 6.303429518370782e-07 0)
(0 6.325779750127911e-07 0)
(0 0 0)
(0 2.50553163652401e-08 0)
(0 4.962834949976739e-08 0)
(0 7.374152277700422e-08 0)
(0 9.741620653749255e-08 0)
(0 1.206722816912313e-07 0)
(0 1.43528095175521e-07 0)
(0 1.660003050964948e-07 0)
(0 1.881037351557298e-07 0)
(0 2.098512373288307e-07 0)
(0 2.312535620681317e-07 0)
(0 2.52319235592357e-07 0)
(0 2.730544441027561e-07 0)
(0 2.934629250285399e-07 0)
(0 3.135458656551687e-07 0)
(0 3.333018097283936e-07 0)
(0 3.527265728568932e-07 0)
(0 3.718131677602103e-07 0)
(0 3.905517406316793e-07 0)
(0 4.089295201159383e-07 0)
(0 4.269307806482985e-07 0)
(0 4.445368221828991e-07 0)
(0 4.617259686654315e-07 0)
(0 4.784735880031555e-07 0)
(0 4.947521367675327e-07 0)
(0 5.105312334438367e-07 0)
(0 5.25777764712697e-07 0)
(0 5.404560299769981e-07 0)
(0 5.545279300537958e-07 0)
(0 5.679532064872653e-07 0)
(0 5.806897380692203e-07 0)
(0 5.926939005412791e-07 0)
(0 6.039209936677787e-07 0)
(0 6.143257364417786e-07 0)
(0 6.238628257364434e-07 0)
(0 6.324875461888038e-07 0)
(0 6.401564101740757e-07 0)
(0 6.468277983777927e-07 0)
(0 6.524625679650441e-07 0)
(0 6.570245958394558e-07 0)
(0 6.594959743676979e-07 0)
(0 0 0)
(0 2.596588651901311e-08 0)
(0 5.142390825657739e-08 0)
(0 7.639885263868725e-08 0)
(0 1.009142948208409e-07 0)
(0 1.249921694656022e-07 0)
(0 1.486527355084972e-07 0)
(0 1.719144264866338e-07 0)
(0 1.947937091698166e-07 0)
(0 2.173049494384404e-07 0)
(0 2.394602846740614e-07 0)
(0 2.612695022320899e-07 0)
(0 2.827399238524195e-07 0)
(0 3.038762961338049e-07 0)
(0 3.246806874521419e-07 0)
(0 3.451523919423916e-07 0)
(0 3.65287841390416e-07 0)
(0 3.850805260975645e-07 0)
(0 4.045209259930031e-07 0)
(0 4.235964534853896e-07 0)
(0 4.422914097800033e-07 0)
(0 4.605869566586669e-07 0)
(0 4.784611060526033e-07 0)
(0 4.958887301631459e-07 0)
(0 5.128415954358321e-07 0)
(0 5.292884244020181e-07 0)
(0 5.451949902896189e-07 0)
(0 5.605242503642243e-07 0)
(0 5.752365251350246e-07 0)
(0 5.892897317029541e-07 0)
(0 6.026396803727e-07 0)
(0 6.152404437637273e-07 0)
(0 6.270448064209408e-07 0)
(0 6.380047995663512e-07 0)
(0 6.480723193419657e-07 0)
(0 6.571998171639013e-07 0)
(0 6.653410381373903e-07 0)
(0 6.724517708022183e-07 0)
(0 6.78490567029122e-07 0)
(0 6.834194034326581e-07 0)
(0 6.861462762749656e-07 0)
(0 0 0)
(0 2.684653411751245e-08 0)
(0 5.315987390059849e-08 0)
(0 7.896727871827866e-08 0)
(0 1.042946252829073e-07 0)
(0 1.291659903737044e-07 0)
(0 1.536036270234399e-07 0)
(0 1.776278216141809e-07 0)
(0 2.012567580382361e-07 0)
(0 2.245063878719444e-07 0)
(0 2.473903058455982e-07 0)
(0 2.699196302069561e-07 0)
(0 2.921028878699142e-07 0)
(0 3.139459045148809e-07 0)
(0 3.354517000636551e-07 0)
(0 3.566203901894229e-07 0)
(0 3.77449094742634e-07 0)
(0 3.979318541782494e-07 0)
(0 4.180595552640933e-07 0)
(0 4.378198675428768e-07 0)
(0 4.571971922269103e-07 0)
(0 4.761726254473931e-07 0)
(0 4.947239380917982e-07 0)
(0 5.128255748863099e-07 0)
(0 5.304486759689892e-07 0)
(0 5.47561125013821e-07 0)
(0 5.641276290648689e-07 0)
(0 5.801098366628955e-07 0)
(0 5.954665025837483e-07 0)
(0 6.101537094517186e-07 0)
(0 6.241251583746345e-07 0)
(0 6.373325420654829e-07 0)
(0 6.49726013847176e-07 0)
(0 6.612547632982026e-07 0)
(0 6.718677025868612e-07 0)
(0 6.815142552303849e-07 0)
(0 6.901452203976398e-07 0)
(0 6.977136634396076e-07 0)
(0 7.041757695951917e-07 0)
(0 7.094916233776255e-07 0)
(0 7.12492349502639e-07 0)
(0 0 0)
(0 2.769515206368719e-08 0)
(0 5.483215674189075e-08 0)
(0 8.144084011118263e-08 0)
(0 1.075494651080872e-07 0)
(0 1.331843278131331e-07 0)
(0 1.583697472714843e-07 0)
(0 1.831279309193435e-07 0)
(0 2.074788455715227e-07 0)
(0 2.314400929513906e-07 0)
(0 2.550267890908824e-07 0)
(0 2.782514472501907e-07 0)
(0 3.011238643063537e-07 0)
(0 3.236510108383024e-07 0)
(0 3.458369253929181e-07 0)
(0 3.676826136514247e-07 0)
(0 3.89185953427223e-07 0)
(0 4.103416066154565e-07 0)
(0 4.311409393843656e-07 0)
(0 4.515719520566775e-07 0)
(0 4.716192202909202e-07 0)
(0 4.912638493627154e-07 0)
(0 5.104834436032463e-07 0)
(0 5.292520934314207e-07 0)
(0 5.475403829924116e-07 0)
(0 5.653154222828088e-07 0)
(0 5.825409089110545e-07 0)
(0 5.991772264201115e-07 0)
(0 6.15181588462647e-07 0)
(0 6.305082410498553e-07 0)
(0 6.451087383924313e-07 0)
(0 6.589323110070447e-07 0)
(0 6.719263468005831e-07 0)
(0 6.840370051543794e-07 0)
(0 6.952099782092437e-07 0)
(0 7.053913993850512e-07 0)
(0 7.145288729331018e-07 0)
(0 7.22572557244546e-07 0)
(0 7.294761843492681e-07 0)
(0 7.351978784019036e-07 0)
(0 7.384894206251665e-07 0)
(0 0 0)
(0 2.850953064810143e-08 0)
(0 5.643646956812682e-08 0)
(0 8.381328874775588e-08 0)
(0 1.106707078354536e-07 0)
(0 1.370373063818621e-07 0)
(0 1.629395295739426e-07 0)
(0 1.884015635039461e-07 0)
(0 2.134452142200915e-07 0)
(0 2.38089789608312e-07 0)
(0 2.623519835072376e-07 0)
(0 2.862457617844424e-07 0)
(0 3.097822504044326e-07 0)
(0 3.329696257992071e-07 0)
(0 3.55813008109578e-07 0)
(0 3.783143580972643e-07 0)
(0 4.004723787308512e-07 0)
(0 4.222824226205011e-07 0)
(0 4.437364066167306e-07 0)
(0 4.648227350023652e-07 0)
(0 4.855262328066114e-07 0)
(0 5.05828090880601e-07 0)
(0 5.257058245361353e-07 0)
(0 5.45133247828032e-07 0)