/*--------------------------------*- C++ -*----------------------------------*\
| =========                 |                                                 |
| \\      /  F ield         | OpenFOAM: The Open Source CFD Toolbox           |
|  \\    /   O peration     | Version:  2206                                  |
|   \\  /    A nd           | Website:  www.openfoam.com                      |
|    \\/     M anipulation  |                                                 |
\*---------------------------------------------------------------------------*/
FoamFile
{
    version     2.0;
    format      ascii;
    arch        "LSB;label=32;scalar=64";
    class       volVectorField;
    location    "2";
    object      U;
}
// * * * * * * * * * * * * * * * * * * * * * * * * * * * * * * * * * * * * * //

dimensions      [0 1 -1 0 0 0 0];

internalField   nonuniform List<vector> 
18114
(
(0.06642110908419177 0.001020884985901472 0)
(0.06551781291816422 0.00181130090230341 -1.250489145281419e-29)
(0.06363277559054582 0.001976960437293563 1.12194324661867e-29)
(0.06120440257409047 0.002049582561015954 1.061853167244319e-29)
(0.05869838018490903 0.002099989463650301 1.019263763467352e-29)
(0.05621873300134784 0.002119006582162665 9.763782679077769e-30)
(0.05373853962160829 0.002105013498360663 0)
(0.05124680021900905 0.002067584284728998 0)
(0.04876141509615659 0.002013194537273148 0)
(0.04630368576662171 0.001946889227818364 0)
(0.04388655851366819 0.001873677769366518 0)
(0.04150737531163078 0.001802503816113173 -7.660553338600428e-30)
(0.03919738444810081 0.001685284146618034 0)
(0.03688292129579629 0.001505136978052266 -7.001904747957052e-30)
(0.03471778447110608 0.001330381115398387 0)
(0.03266241256942503 0.00116605996351965 6.320131637054047e-30)
(0.03071817162642042 0.001011078184580055 6.008471621741454e-30)
(0.02890380691131941 0.0008640910036424291 0)
(0.02722969382512931 0.0007222390559334025 0)
(0.02569625403560399 0.0005898453862197861 0)
(0.02431086553143796 0.0004682088940732175 -4.979050715138241e-30)
(0.02307244501314061 0.0003599074523106998 4.780926168976662e-30)
(0.02197228393351065 0.000266074693623626 0)
(0.02100177520963918 0.0001859193761856593 0)
(0.02015270584869579 0.0001186047595610691 4.334249752251675e-30)
(0.01941525849648739 6.28853312811509e-05 0)
(0.01877770048609168 1.837790503308762e-05 0)
(0.01823030538708379 -1.714009839394008e-05 0)
(0.01776060558703893 -4.488393586845469e-05 -2.008392941760695e-30)
(0.01735895586391694 -6.572809322419898e-05 0)
(0.01701332104954922 -8.006568811797547e-05 -1.963163557294568e-30)
(0.01671768105950869 -8.900708823254032e-05 0)
(0.01645861055518441 -9.293933679737838e-05 0)
(0.0162347049737814 -9.359553275494685e-05 0)
(0.0160307212534992 -9.109558213419872e-05 0)
(0.01585424560608535 -8.708236212938676e-05 0)
(0.01568202512426058 -8.072747957762285e-05 0)
(0.01553835920909588 -7.470401399812516e-05 0)
(0.01537027899273563 -6.075062284514359e-05 4.534155298215207e-31)
(0.01527778401730791 -4.538238464044609e-05 -2.239519063998304e-31)
(0.06818452341934163 0.001323797072079372 2.464513940598256e-29)
(0.06875585887229077 0.002193200287722314 -1.093404731718029e-29)
(0.06930574614255409 0.002502966420460738 -3.30998762897793e-29)
(0.06942271736096264 0.00263408587495097 1.021118361742091e-29)
(0.06937120042932891 0.002757199751302736 -3.010422793346499e-29)
(0.06921826901731128 0.002856916807729437 -9.71339624790891e-30)
(0.06895819364533627 0.002930523243212344 -1.840625174415201e-29)
(0.06859251483168596 0.0029677506312155 0)
(0.06812959320334733 0.00298189805063153 1.704481829071858e-29)
(0.06758429360409243 0.00298304133634881 0)
(0.06696615645994453 0.002976091561316931 1.576079599473013e-29)
(0.06628353377773388 0.002962705561713292 7.58371169870569e-30)
(0.06554729397901067 0.002946771640866856 1.446133035810616e-29)
(0.06476042734446937 0.002920952187211608 -6.877765191797802e-30)
(0.06392430327979974 0.002871338184870875 1.315246141867557e-29)
(0.06303896777564083 0.002796137434957615 -6.24247086327067e-30)
(0.06211182833860993 0.002697950362783382 -1.789683146289861e-29)
(0.06115488139959616 0.002579037706523716 1.142832224565997e-29)
(0.06017760450716025 0.002444694877871047 0)
(0.05919180829121205 0.00229359644316411 0)
(0.05819211792638488 0.002127687714261163 1.493799719051055e-29)
(0.05719579502353581 0.001958058963780685 -1.435448967453301e-29)
(0.05620951914875164 0.001789610750242196 0)
(0.05524590346465973 0.001623507684850687 0)
(0.05430454159438507 0.00146179882512471 -4.275110237492319e-30)
(0.05339361604229038 0.001310144950832943 0)
(0.05250963996522078 0.001169492458936243 0)
(0.05166321205718208 0.001041659097040235 -8.200486098969488e-30)
(0.05084582349081254 0.0009257398920209314 6.018088200145287e-30)
(0.05007072673521688 0.0008233502673343985 0)
(0.04932277793885591 0.0007324624691629721 1.938053104586041e-30)
(0.04862113729618775 0.000654882085081621 3.888954012120559e-30)
(0.04794048148394714 0.000587670779885191 0)
(0.04730841915471325 0.0005318913412843479 0)
(0.04668737222445345 0.0004836517620730126 0)
(0.04611925541021351 0.0004444291254973694 0)
(0.04554699410775065 0.0004113814110118174 0)
(0.04504005448612806 0.0003849410489602002 1.824261164545711e-30)
(0.04449056501126928 0.0003655328129470976 -1.347544140847002e-30)
(0.04408387770381283 0.0003559871043310109 2.214234686754608e-31)
(0.06811797917996951 0.0004719525218717841 2.097428506301423e-29)
(0.06849521411492071 0.001179004548906634 6.778118505128332e-29)
(0.06901197041958966 0.001640433535101532 -2.037680595877581e-29)
(0.0694778877326806 0.001993338674785201 -2.079698349974778e-29)
(0.06980614390894056 0.0022565572827626 5.883433374449004e-29)
(0.0701171226076728 0.002490545933255626 0)
(0.07035442869604235 0.00265801285983001 -1.771551942286631e-29)
(0.07061938772597337 0.002795701865665049 -3.478403844368735e-29)
(0.07080215682077842 0.002907658380610092 -1.702512796908293e-29)
(0.07093503095255693 0.002995696133217418 0)
(0.0710338193503553 0.003066672505250498 -1.573292203140518e-29)
(0.07109509593116757 0.003116609223321457 0)
(0.0711230081425208 0.003153188272937274 -1.442642892555161e-29)
(0.07111459625495985 0.003146125276093464 4.12817021886275e-29)
(0.07106890715803806 0.003119995346121502 -3.946697068109973e-29)
(0.07098242132616195 0.003068594983694036 -2.523074607668384e-29)
(0.07085643099240019 0.002995982025663664 1.19195446870895e-29)
(0.07069397210346302 0.002901861433017399 1.180290575364156e-29)
(0.07049927609410263 0.002790782940511241 0)
(0.07027416789874591 0.002669290076182763 0)
(0.07001872192701292 0.002541605409312349 2.672797382632937e-31)
(0.06973356427964998 0.002409461887292552 9.587535795422781e-30)
(0.06942069904806243 0.002272803018578333 0)
(0.06908316741397558 0.002136679758657123 0)
(0.06872434721237981 0.002007499964391565 -8.952046404167293e-30)
(0.06834832990448314 0.001882897146457905 0)
(0.06795853370577719 0.001763661652249261 0)
(0.06755886309931459 0.001650598556690184 8.145503884592225e-30)
(0.06715205626817722 0.001545347545183457 4.205378311310116e-30)
(0.06674249629054217 0.001447973970284686 0)
(0.0663267230716595 0.001356317076790044 0)
(0.06591311588180883 0.001273938955781999 -3.860747930719051e-30)
(0.06549727545092995 0.001199767819144091 0)
(0.06508991584822824 0.001135051231555348 0)
(0.06467957023182458 0.001076993995228949 0)
(0.06428409415901282 0.001027157674035139 0)
(0.06387853514832804 0.0009818494878768447 0)
(0.06350455891363238 0.0009448166245553182 -3.631809900006207e-30)
(0.06308517017472226 0.0009079775523786036 8.923471927062186e-31)
(0.06277866066538119 0.0008804737556279657 -8.850323583613424e-31)
(0.06806698516787131 0.0003856799402957 -3.204896851923111e-30)
(0.06826913091761282 0.001035410380226503 -4.435919865729454e-29)
(0.06859377353938614 0.001490334556888201 4.229932907172619e-29)
(0.06894337454251064 0.001817875109385466 0)
(0.06926613058020016 0.002070550921777626 -3.889623631597983e-29)
(0.06957571289869698 0.002281848230573481 3.665419787425343e-29)
(0.06988377240177698 0.002455404238491797 3.612195894941011e-29)
(0.07017553519590769 0.002590600197655036 6.905646418565794e-29)
(0.07045961510054394 0.002707557409251222 0)
(0.07072247961256041 0.002803125584140411 -3.198209088404013e-29)
(0.07098399500856678 0.002881857181290385 3.085813764419681e-29)
(0.07121902518387659 0.002937394225757221 2.973803391542562e-29)
(0.07145690467986547 0.002975685121133317 2.862874062718296e-29)
(0.07166507995164979 0.002990812809869681 -2.751370306045022e-29)
(0.07187740886220846 0.002983247561460554 2.634714373040373e-29)
(0.07204886902849948 0.002957202850913876 2.522006574911369e-29)
(0.07223919864908293 0.002912861572329085 2.438698935379976e-29)
(0.0723862634504049 0.002853015751842252 -2.316830349495525e-29)
(0.07250302641212988 0.002780745997542761 2.255990542019916e-29)
(0.07259471045659485 0.002695120647582343 0)
(0.07265957191140696 0.002599917155363221 -3.113423536579365e-29)
(0.07269668467332926 0.002497634270461884 -2.01693093246333e-29)
(0.07271099338239849 0.002389173522709643 0)
(0.0727025050876916 0.002277011765520781 1.890600811866796e-29)
(0.07267268284203862 0.002163938698795441 -9.440761247449647e-30)
(0.07262331892168471 0.002053309193346021 0)
(0.07255631744734731 0.001946765823805575 0)
(0.07247409280448935 0.00184369157614263 0)
(0.07237970467863855 0.00174600768911955 -8.195499447928374e-30)
(0.07227494440332059 0.001655937073329711 0)
(0.07216037605262476 0.001573983990555409 0)
(0.07203678267905013 0.001499427161164378 0)
(0.07190556678995971 0.001431714248502192 -7.868731532409023e-30)
(0.07176861881840296 0.001369443417706779 0)
(0.07162661434158359 0.001313059792521408 0)
(0.07148083394083202 0.001263521347798856 0)
(0.07133063453851603 0.001221802570485031 -3.718215496181283e-30)
(0.07118072063589023 0.001186553956972091 1.815717993405813e-30)
(0.07101995652421522 0.001151855490235019 0)
(0.0708888747734667 0.001121488466225651 -8.097038525787909e-33)
(0.06804241132830789 0.0002597588506262423 -4.242925060040033e-29)
(0.06815265606391792 0.0007391908588598012 0)
(0.06836742588231974 0.001129202741083172 0)
(0.06862879799184951 0.001440295078492324 -7.58881435276389e-29)
(0.06889469035932344 0.001695872808049066 0)
(0.06915278569546068 0.001909128916994061 3.49808896328807e-29)
(0.06941766764194902 0.002091182642287248 0)
(0.06967932620904149 0.00224067644267558 -3.427357109696262e-29)
(0.06994372894097566 0.002369142183838531 0)
(0.0702014850274459 0.002475376150364624 3.199223352896587e-29)
(0.07046381752157066 0.002563958290586364 -3.086778107744461e-29)
(0.07072054449194866 0.002632114189073577 -2.974702867111983e-29)
(0.07098066726948014 0.002682613320269875 -2.863701603611984e-29)
(0.07123308974847442 0.002713421790372183 0)
(0.07148280928119734 0.002727155205035673 0)
(0.07171436624081719 0.002721119813935545 -2.553136748204552e-29)
(0.07193832933646148 0.002695387689070128 -2.439177772049456e-29)
(0.07214226244150704 0.002657354558571701 0)
(0.0723372434463507 0.002605627411936037 -4.543268239537496e-29)
(0.07251174301158043 0.002542597735927715 2.206375470876059e-29)
(0.07267459542732582 0.002465189418726785 2.090298208547151e-29)
(0.07281333218773808 0.002382288007262289 2.016899582849926e-29)
(0.07294037688816046 0.002288871837690077 0)
(0.07304377806364053 0.002196890600532846 4.726070135519256e-31)
(0.07313804499815622 0.002097313353831953 1.837447068283577e-29)
(0.07320886759329644 0.002004173043699005 -1.835577765043666e-29)
(0.07328236800266838 0.001910788610146227 -1.792333119615478e-29)
(0.07333213682172382 0.001821521343924533 0)
(0.07336842848698644 0.00173674738822139 0)
(0.07339512068880685 0.001658322607317533 1.684554149535474e-29)
(0.07341235396622753 0.001586127166601727 0)
(0.07342150842389217 0.00152004140766961 8.12974981697581e-30)
(0.07342500493979826 0.00145757769302397 7.86368075209836e-30)
(0.07342399008760159 0.001403241353789015 0)
(0.07341853021452156 0.001354227421643877 0)
(0.07340889888757206 0.001311991580992841 0)
(0.07339539834041459 0.001273265996569359 3.714982562831639e-30)
(0.07337957566113563 0.001241090577205339 3.698564991626028e-30)
(0.07335911284212382 0.001209699706094387 0)
(0.07334495037167553 0.001184674740347003 8.891920159612326e-31)
(0.06803400604315415 0.0002070645399548593 0)
(0.06810683268981936 0.0006080163523010967 7.632158154225113e-29)
(0.06826023107811466 0.0009617170765120599 7.512732327793401e-29)
(0.06846001010392286 0.001257058269725368 2.399630702250958e-30)
(0.06867591818124771 0.001503748390465608 -7.174175221842609e-29)
(0.06889529383749625 0.001711601809695813 -1.416082582177918e-28)
(0.06912126610472225 0.001889010761836863 0)
(0.06935052732848122 0.002037255907114895 0)
(0.06958276129964175 0.002161799049169662 0)
(0.0698136676120006 0.002264369122403838 -6.242712944165715e-29)
(0.07004619690641127 0.002348123739953167 0)
(0.0702775163275012 0.002412870269266941 0)
(0.07050932152131766 0.002459926476806186 0)
(0.07073759159293073 0.002488947037795353 0)
(0.0709640597207154 0.002501231479654452 0)
(0.07118453393088855 0.002497438098547391 2.553916874286652e-29)
(0.07139996483380105 0.002478648210887107 0)
(0.07160534729332492 0.002447863599275772 4.785282598871775e-29)
(0.07180380090775654 0.002405509120625161 2.287661922694425e-29)
(0.07199157161474388 0.002352711039096764 -2.206998950820982e-29)
(0.07217039880731474 0.002289991208545882 2.165198653986505e-29)
(0.07233595691025431 0.002220551068095804 -2.098074435867728e-29)
(0.07249060003918602 0.002144953370406106 0)
(0.0726314531037839 0.002066181252828993 -1.93804642487595e-29)
(0.07276121742356149 0.001985584389442145 0)
(0.07287564200859797 0.001905465101636574 -4.018603352999661e-31)
(0.07297975786646545 0.001824860675199152 1.792609209579778e-29)
(0.07307177785327923 0.001749243828112696 0)
(0.07315572136632212 0.001677025659526395 -1.752877643381064e-29)
(0.07323058872152753 0.001608669689075405 3.266845379730399e-31)
(0.07329939809003516 0.001546120960592744 0)
(0.07336479139304812 0.001486582231734813 -8.130058126144087e-30)
(0.0734158269235531 0.001430526720409995 0)
(0.07346233123515027 0.001379167956218762 0)
(0.07350435007078709 0.00133265673621584 0)
(0.07354500711533229 0.001291023233252241 0)
(0.07357852767001875 0.001254440873739796 0)
(0.07361676578197648 0.00122161743543054 3.57477883057086e-32)
(0.07364912770697055 0.001193790185555918 3.672961805255343e-30)
(0.07368674703960268 0.001169495780056208 -1.805962582486765e-30)
(0.06802893967764383 0.0001695366017314848 0)
(0.06807914093574294 0.0005013081952690133 -2.853002714539203e-30)
(0.06819014219955259 0.0008045598539729317 -7.513435340786865e-29)
(0.06834375085593597 0.001068060172323704 1.448479380444136e-28)
(0.06851956683503591 0.001294950789752161 1.41645978737992e-28)
(0.06870584632406686 0.001489993263641737 1.383197232309849e-28)
(0.06890115259944059 0.001658856724371836 -6.67570044311166e-29)
(0.06910293011338485 0.001802961155341969 0)
(0.06930958521918194 0.001925362418787654 0)
(0.06951797495553975 0.002027674886151987 6.244021883442006e-29)
(0.06972814921028939 0.002112042029065895 0)
(0.06993833941946544 0.002178860293656757 0)
(0.07014862441808607 0.002229083267454735 0)
(0.07035665063870726 0.002262997833443151 0)
(0.07056239902052643 0.002281463814959047 0)
(0.07076343245170683 0.002285139355042514 0)
(0.07095982934014931 0.002274911531913376 0)
(0.07114891517053938 0.002252332018828449 -4.786547118268239e-29)
(0.07133152170743065 0.002218400529000291 -4.668364899084836e-29)
(0.07150575690432072 0.002174595069808227 0)
(0.07167248748743921 0.002121686644876533 -6.554175063634305e-29)
(0.07182932217340476 0.002062190537232049 2.098639475275712e-29)
(0.07197777516784318 0.001996819052995993 0)
(0.07211574416830731 0.001928281466284885 0)
(0.07224513203883795 0.001857039869338177 0)
(0.07236437991843425 0.001785910049944939 1.876558379577006e-29)
(0.07247602640801545 0.001715049547042725 -1.866552885947246e-29)
(0.0725784856129735 0.001647323446809819 0)
(0.07267478927518504 0.001581684782684393 1.753281897411589e-29)
(0.07276355122134158 0.001519418681448415 3.052347108078002e-31)
(0.07284731537228034 0.001459653681572474 -1.71368681186984e-29)
(0.07292577910751663 0.001405124489902288 0)
(0.07300136576713719 0.001355192763883493 0)
(0.07307164677081167 0.001310894782056006 0)
(0.07314056389611731 0.001269078117806901 0)
(0.0732035945489341 0.001232851571306297 7.810940510409662e-30)
(0.07326674134586818 0.001198816016657207 7.673591873681694e-30)
(0.07332392899087418 0.001169921148401594 -1.127323575636741e-29)
(0.07338405530173889 0.001142329408816568 3.114268691762904e-32)
(0.0734342771900184 0.001120627448157301 3.62541202694982e-30)
(0.06802613915596326 0.0001428653956534125 0)
(0.06806349358057071 0.0004239072927148644 -1.445058677424199e-28)
(0.06814824909706993 0.0006879913643169326 7.035455034914151e-29)
(0.06827031890017098 0.0009255753211621608 -7.134480309874003e-29)
(0.06841560163494942 0.001135327861774628 -1.38055236224827e-28)
(0.06857456985520881 0.001318771627570199 -6.836901951385114e-29)
(0.0687442589591379 0.001479212007826536 6.67663173082512e-29)
(0.06892209266340837 0.001617838010957597 6.3968891382133e-29)
(0.06910622736858485 0.001736542601665415 0)
(0.06929382800546613 0.001836446858844838 0)
(0.06948406981676009 0.001919190525126806 5.930114094183868e-29)
(0.06967514721348136 0.00198536715800922 0)
(0.06986678582445896 0.002035915074453258 5.61146834340858e-29)
(0.07005693417254551 0.002071258199030034 -5.452794731553063e-29)
(0.07024540769749153 0.002092213946332792 0)
(0.07043002100239874 0.002099456610841871 0)
(0.07061091148739114 0.002093874369600226 0)
(0.07078584896291437 0.002076718450050483 -4.844691192102762e-29)
(0.07095556285614263 0.002049017965918296 4.669405141624073e-29)
(0.07111803721011166 0.002012251964868515 4.5676009391388e-29)
(0.0712743343160258 0.001967181365008978 8.827121046355267e-29)
(0.07142212808482973 0.001915820914609116 0)
(0.07156292099313331 0.001858920188487399 0)
(0.07169465303280777 0.00179886682012502 4.087338468631093e-29)
(0.07181943212308362 0.001736153494256586 0)
(0.07193537566183626 0.001673330130499848 0)
(0.0720451586488725 0.001610189766940573 -3.073805549582464e-31)
(0.07214675170470082 0.001549182790766417 0)
(0.0722434353034489 0.001489446433440539 0)
(0.07233308788847671 0.001433133823572876 -1.748640732140168e-29)
(0.07241935832545196 0.001378915198111358 -2.587256501780607e-31)
(0.0724992996204701 0.001329494894812917 0)
(0.07257747521368058 0.001282821008095708 0)
(0.07265032476205602 0.001241026757505346 0)
(0.07272332233530275 0.001201255399722744 -1.609280751753827e-29)
(0.07279097812053009 0.001166570991175986 -7.812460078578152e-30)
(0.0728601067885741 0.00113393824775036 -7.675060976539148e-30)
(0.072923183572418 0.0011063390940819 7.540163947193515e-30)
(0.07299086659867512 0.001080311001902613 -3.705258975160424e-30)
(0.07304607122458207 0.001059326582748013 -1.819567118082699e-30)
(0.06802439324708154 0.0001226985767208788 0)
(0.06805366377218536 0.0003646385112419472 2.120081656805739e-30)
(0.06812072546192717 0.000595285949879827 -7.035812288710664e-29)
(0.06821955102368726 0.0008071723369672447 -6.755495828178554e-29)
(0.06834047163086124 0.0009976150933061446 6.815956310475028e-29)
(0.06847626556445675 0.001166528361633425 0)
(0.06862388178508486 0.001315806502020807 -6.42073763317758e-29)
(0.0687806769229657 0.001446210164006675 -6.397700927919687e-29)
(0.06894479328271569 0.001559011642018219 -6.153937588017035e-29)
(0.06911356569888567 0.001654871935102168 0)
(0.06928592078744816 0.001735055188318267 -1.180048797374964e-28)
(0.06945991163069752 0.001800043247605503 0)
(0.06963511894151579 0.001850686703661469 -5.612414273845955e-29)
(0.06980956097556303 0.001887336046242597 1.088509825182284e-28)
(0.06998306495519067 0.001910743116541732 0)
(0.07015358852953289 0.001921491840347579 5.142866247858571e-29)
(0.07032133789186841 0.001920413022178301 0)
(0.07048426317803368 0.001908518450128899 4.845613351319098e-29)
(0.07064303174100557 0.001886717389227407 0)
(0.07079565361407597 0.001856344261704109 -4.568487160516232e-29)
(0.0709431965146506 0.001818193283802418 -4.438603443092641e-29)
(0.07108355435317644 0.001774039831959635 -4.361363499619984e-29)
(0.07121821544217222 0.001724633337086729 0)
(0.07134513797594259 0.001672076543095239 5.302725019289652e-31)
(0.07146637346896677 0.001616787957620042 0)
(0.07157986149113045 0.0015609920841118 3.942861867726324e-29)
(0.07168825376448611 0.001504503645454019 1.898055438744726e-29)
(0.07178933228793466 0.001449602898515964 0)
(0.07188639469018711 0.001395496030801507 0)
(0.07197688247936368 0.001344379319933619 0)
(0.0720646406802815 0.001294785695850779 -2.391429629444906e-31)
(0.07214633670317837 0.001249132525305786 -1.72804520400992e-29)
(0.07222665564161478 0.001205446172293609 1.69330322846037e-29)
(0.0723016106764211 0.00116621721182468 0)
(0.07237674321892176 0.001128941319584515 1.609554733103317e-29)
(0.07244666918584877 0.001096366205099792 0)
(0.07251795636597308 0.001065818412098241 7.821113651949095e-30)
(0.07258322643585881 0.001040052043105474 7.669865290130992e-30)
(0.0726526988008499 0.001016035016693962 -7.523965192729017e-30)
(0.07271018248812361 0.0009965671329044232 1.844277997754734e-30)
(0.0680231829856352 0.0001066804906390912 0)
(0.06804688129550984 0.0003172285355814351 6.891348576126347e-29)
(0.06810145859152957 0.0005196155037729382 0)
(0.06818309506095672 0.0007082930176953792 -6.431850152618312e-29)
(0.06828505249820245 0.0008805225992325131 0)
(0.06840190398776082 0.001035326417468888 0)
(0.06853097406867835 0.00117361867926151 6.421354263303326e-29)
(0.06866970418878605 0.001295652059872452 0)
(0.06881632419828272 0.001402265498068611 8.718902571524092e-31)
(0.0689683367788788 0.001493732982127547 0)
(0.06912463427748473 0.00157099553899346 5.870237257233885e-29)
(0.06928322097920253 0.001634338238132319 0)
(0.06944361673839149 0.001684501230081502 -5.54279252912242e-29)
(0.06960389750952586 0.001721735956969183 -1.084020119792318e-28)
(0.06976393144690182 0.001746727308023822 0)
(0.06992177818737086 0.00175995422641535 -5.143692223179369e-29)
(0.07007770395853356 0.001762170224000783 5.009320515061795e-29)
(0.07022976239508799 0.001754228203937691 0)
(0.07037864759201219 0.001736953272464702 0)
(0.07052241743068785 0.001711578412871754 0)
(0.07066217761047781 0.001678889653866368 0)
(0.07079590373561427 0.001640506782928546 -4.002668978112282e-31)
(0.07092510693859756 0.001597112599394332 0)
(0.07104772076029908 0.001550610325466895 -8.330539446116191e-29)
(0.07116577528819017 0.001501353906032291 4.088784914817848e-29)
(0.07127710981558012 0.001451377989595184 -7.936822759160096e-29)
(0.0713843406281976 0.001400517588556757 0)
(0.07148507788651484 0.001350863646164751 0)
(0.07158256451389683 0.001301635880801435 0)
(0.07167398872272422 0.001254928726389782 -3.650549215223874e-29)
(0.07176323573088948 0.001209355108197641 1.764418325782156e-29)
(0.07184683293144609 0.001167204424716505 1.728313703249835e-29)
(0.07192943928722752 0.001126674527008785 -3.406505551936876e-29)
(0.07200684643259601 0.001090158172935386 0)
(0.07208446856559708 0.001055435668266313 0)
(0.07215695760000722 0.00102499074899973 1.610066442072481e-29)
(0.07223070336460088 0.0009965020746285076 6.530340782182066e-32)
(0.07229841886698866 0.0009725096143608415 -1.539934773491915e-29)
(0.07237002645772735 0.0009504345976105522 7.525033915511838e-30)
(0.07243008632791689 0.0009326604581330257 -1.844536230219823e-30)
(0.06802230507934148 9.357288974378831e-05 0)
(0.06804197586329261 0.0002783155513035136 1.308612717973237e-28)
(0.06808743028839682 0.0004568267774112964 0)
(0.06815608447975208 0.0006249309239757656 1.318832707615165e-28)
(0.06824307102640303 0.0007801788776125515 0)
(0.06834428603367135 0.0009211917421742897 1.258386831355313e-28)
(0.06845756469715589 0.001048308147070832 1.239546855677363e-28)
(0.06858059781708423 0.001161430427541039 -1.219024624301586e-28)
(0.06871177977129336 0.001261120492792298 6.068073371547265e-29)
(0.06884880089242056 0.001347390528773844 0)
(0.06899060602954107 0.001420936700555365 0)
(0.06913523884352854 0.001481863049235626 0)
(0.06928220624704437 0.001530787153996078 5.543503581732505e-29)
(0.06942965376649474 0.001567847180222717 1.079265440259895e-28)
(0.0695774831704408 0.001593636725782591 0)
(0.06972384922856006 0.001608518323479669 0)
(0.06986905960489428 0.001613159276931572 -5.010049323750637e-29)
(0.07001126452149714 0.001608283424814123 0)
(0.07015118426585126 0.00159464250585314 -4.774355080238809e-29)
(0.07028694364871539 0.001573356394104117 -4.6589139031585e-29)
(0.07041965816773221 0.00154517343478188 -4.546646941480175e-29)
(0.07054737038069746 0.001511574332489008 4.402815040989118e-29)
(0.07067158614942999 0.001473194584377921 4.332568657971474e-29)
(0.07079025886974716 0.001431771769216166 4.189317283501083e-29)
(0.07090536480064503 0.001387637692907576 -4.089407233730011e-29)
(0.07101471421151008 0.00134264565365847 3.993901442634552e-29)
(0.07112082367079256 0.001296651730560882 -3.948064683315909e-29)
(0.0712212348152743 0.001251544849161221 0)
(0.07131907186903276 0.001206621530062401 3.775892295416209e-29)
(0.07141144463650163 0.001163812690224316 3.651074815061774e-29)
(0.07150214006983767 0.001121892732082423 0)
(0.0715876476767376 0.001082940507453994 1.768814092664344e-29)
(0.071672472699101 0.001045348860166517 1.713178938583348e-29)
(0.07175235256649547 0.001011311772953416 1.69469311462385e-29)
(0.07183251786554533 0.0009789441040291649 0)
(0.07190770425797396 0.0009505148681798952 -1.610278815961868e-29)
(0.0719841050890266 0.0009240733936182821 -7.888579935115061e-30)
(0.07205452099959438 0.0009019227435662695 1.551165600251898e-29)
(0.07212864370377511 0.0008819244401485577 -7.620725635758266e-30)
(0.07219139242074193 0.0008659584945867097 0)
(0.06802164297152211 8.261322495549751e-05 0)
(0.06803828143998303 0.0002456997762352372 -1.308632725923219e-28)
(0.06807681759090385 0.0004037865542892179 0)
(0.06813540692278615 0.0005536703835419595 0)
(0.0682104083871377 0.000693290865196699 0)
(0.06829868939155476 0.0008211969759273391 -2.209886751123399e-30)
(0.0683985586228387 0.0009374105515803508 -1.239633006788446e-28)
(0.06850802561102311 0.001041624101673633 1.219120447607117e-28)
(0.06862568084973167 0.001134206275581329 0)
(0.06874941987511661 0.001214999731185779 0)
(0.06887825720273269 0.001284495191145597 0)
(0.06901033274504463 0.001342633518928634 1.117423781517148e-28)
(0.06914515888962372 0.001389888769742569 0)
(0.06928097810246048 0.001426281410892228 -5.384543925762468e-29)
(0.06941771284182414 0.001452297276021653 1.048867305376154e-28)
(0.06955363074602099 0.001468185267681138 5.12921239070878e-29)
(0.06968905636138173 0.001474522561874308 5.014776030287879e-29)
(0.069822250010009 0.001471919013076535 4.901555243507286e-29)
(0.06995393142637951 0.001461057503732366 4.774998918951082e-29)
(0.07008232259059238 0.001442948879055695 9.340174542003043e-29)
(0.07020852289664585 0.00141830459149315 4.547273304797804e-29)
(0.07033066492579286 0.001388488290096904 -4.469266855529283e-29)
(0.07045021389832268 0.001354111326016746 -4.333169790455835e-29)
(0.0705651826553019 0.001316771287636627 0)
(0.07067745896247316 0.001276798890971373 -4.173347417973594e-29)
(0.07078488271464232 0.001235880083615546 0)
(0.07088983586214405 0.00119390836579805 3.948601608277349e-29)
(0.07098987257224988 0.001152587867601021 0)
(0.07108795467370357 0.001111310978545474 4.111768502632623e-31)
(0.07118120671860599 0.001071819985564622 -3.734523753072235e-29)
(0.07127324082709129 0.001033049703622393 0)
(0.07136058496844011 0.0009968616493413911 -5.343491534884316e-29)
(0.07144754124463436 0.0009618714762566724 0)
(0.07152989305502121 0.0009300797217968488 -1.694902934698678e-29)
(0.07161264532529069 0.0008999200995913662 -1.673409288842337e-29)
(0.07169063920748336 0.0008734554486562338 0)
(0.07176982311456527 0.0008490778849162207 0)
(0.0718431225667857 0.0008288313259739517 -7.783188926875199e-30)
(0.07191993922332893 0.0008110043003178523 7.621594410391425e-30)
(0.07198561788453775 0.0007969709945565551 3.74617785450046e-30)
(0.06802112698381921 7.329090608624184e-05 -1.255456208615986e-28)
(0.0680354059622249 0.0002178993155533335 1.254110677989921e-28)
(0.06806853760184195 0.0003583295560642639 0)
(0.06811915209893447 0.0004920947637845042 -1.240126003866424e-28)
(0.06818443636891484 0.0006174951418080416 0)
(0.06826197061499834 0.0007331672685500774 -2.452694593747052e-28)
(0.06835043677005198 0.0008389574273835262 0)
(0.06844816144123173 0.0009344483859145655 0)
(0.06855394206564454 0.001019871224447729 0)
(0.06866591191760309 0.00109498644279363 0)
(0.06878313949169464 0.001160124395195117 0)
(0.06890390217609042 0.001215105753612988 -1.117530459013821e-28)
(0.06902771594496986 0.001260247243256768 0)
(0.06915296289855098 0.001295461330283451 -1.067079249576024e-28)
(0.06927955968441843 0.001321118116346469 -1.048982490943966e-28)
(0.06940592435407525 0.001337368881022289 -1.537300879614935e-28)
(0.06953236355731315 0.00134469923344029 -5.015361712250247e-29)
(0.06965727106184137 0.001343618220684171 -4.902141184931674e-29)
(0.06978133141852584 0.001334740496521501 -9.606415784046199e-29)
(0.06990290191392945 0.001318973859137109 1.827380301042095e-31)
(0.07002303501015121 0.001297000213521387 0)
(0.07013998253042643 0.001270085269320694 -2.761915311223015e-31)
(0.0702551417380627 0.001238828060583626 0)
(0.0703666149796436 0.001204702967797832 0)
(0.07047617384051248 0.00116805121055887 4.173874514297816e-29)
(0.07058172981499719 0.001130411233191753 0)
(0.07068550855267253 0.001091724989521585 0)
(0.07078513658254722 0.001053523671703682 0)
(0.0708833826064533 0.00101529505600883 -3.817979772943129e-29)
(0.07097745332692522 0.0009785892572068801 -3.754763170527215e-31)
(0.07107074282397259 0.0009424972482572855 0)