/*--------------------------------*- C++ -*----------------------------------*\
| =========                 |                                                 |
| \\      /  F ield         | OpenFOAM: The Open Source CFD Toolbox           |
|  \\    /   O peration     | Version:  2206                                  |
|   \\  /    A nd           | Website:  www.openfoam.com                      |
|    \\/     M anipulation  |                                                 |
\*---------------------------------------------------------------------------*/
FoamFile
{
    version     2.0;
    format      ascii;
    arch        "LSB;label=32;scalar=64";
    class       volVectorField;
    location    "2";
    object      U_0;
}
// * * * * * * * * * * * * * * * * * * * * * * * * * * * * * * * * * * * * * //

dimensions      [0 1 -1 0 0 0 0];

internalField   nonuniform List<vector> 
18114
(
(0.06642110975894819 0.001020883021914351 0)
(0.06551781675962623 0.001811299953479005 0)
(0.06363278591067176 0.001976957741402052 0)
(0.06120442143747803 0.002049578421182121 0)
(0.05869840862507866 0.002099984490465754 -1.017617866081487e-29)
(0.0562187716015181 0.002119002123545165 0)
(0.05373858698999402 0.002105009933187705 -9.335171348166542e-30)
(0.05124685329660641 0.002067581872960019 0)
(0.04876147107824059 0.002013193404499138 0)
(0.04630374290101671 0.001946889170927517 0)
(0.04388661582286046 0.001873678338625706 0)
(0.04150743200083029 0.001802504795217341 0)
(0.0391974411458156 0.001685284017966619 0)
(0.03688297834653304 0.001505134541628692 0)
(0.03471784526017775 0.001330377210714424 0)
(0.03266247764820934 0.001166055863839584 0)
(0.03071824149977131 0.00101107502086583 0)
(0.02890388120555082 0.0008640893026593384 0)
(0.02722977149246959 0.0007222386140606807 0)
(0.02569633409179559 0.0005898453746672603 0)
(0.02431094721340251 0.0004682086508376668 4.959251384899169e-30)
(0.02307252795378198 0.0003599067166836165 0)
(0.02197236780286055 0.0002660737111192027 0)
(0.02100185935696301 0.000185918786020016 0)
(0.02015278951262995 0.0001186048914777666 0)
(0.01941534076812722 6.28861926421519e-05 0)
(0.01877778053010149 1.837944418279032e-05 0)
(0.01823038268828661 -1.713793279729489e-05 -4.052721836071198e-30)
(0.01776067964564465 -4.488132552617377e-05 1.997103307945996e-30)
(0.01735902639259149 -6.572520231294748e-05 1.972657591949409e-30)
(0.01701338789033132 -8.006269461322563e-05 -1.9515011291348e-30)
(0.01671774399489901 -8.900401071820079e-05 -1.93257319163327e-30)
(0.01645866935371686 -9.29362212657464e-05 1.914700121577066e-30)
(0.01623475932539305 -9.359234333491345e-05 1.897441826850904e-30)
(0.0160307708069667 -9.109229395666885e-05 0)
(0.01585429000828422 -8.707881845915487e-05 0)
(0.01568206404416565 -8.072355306807009e-05 0)
(0.01553839245557903 -7.469962145803112e-05 0)
(0.01537030638163799 -6.074580477604169e-05 0)
(0.0152778054079895 -4.537728299709085e-05 2.222945318067088e-31)
(0.0681845245414691 0.001323795571023773 -2.461271134916068e-29)
(0.06875585821129668 0.002193190390336013 0)
(0.06930575794580494 0.002502953712552466 -2.187189141207942e-29)
(0.06942273781267606 0.002634072028346687 -2.076333367329122e-29)
(0.06937122973858573 0.002757186732082658 1.013358735490034e-29)
(0.06921830804761016 0.002856900795494998 0)
(0.06895824138106715 0.002930513631120355 9.278303417744521e-30)
(0.06859256957561789 0.002967744888921555 0)
(0.06812965306900835 0.002981894759325473 0)
(0.06758435668539177 0.002983039676985538 0)
(0.0669662211037646 0.00297609093073149 0)
(0.06628359804837421 0.002962705381609287 0)
(0.06554735676307248 0.00294677103080164 -1.44264104290439e-29)
(0.06476048872405964 0.002920950400230577 0)
(0.06392436362131634 0.002871334685035575 0)
(0.06303902771570462 0.002796132301098529 1.250196016334296e-29)
(0.06211188915189126 0.002697944286230298 -1.192783956708283e-29)
(0.06115494469134355 0.002579031653223398 1.13910380703548e-29)
(0.06017767163363389 0.00244468950105401 0)
(0.05919187996345626 0.002293592158982827 -1.041722504326886e-29)
(0.05819219388911821 0.002127684712745345 5.096059177020219e-30)
(0.05719587461271328 0.001958057336669766 0)
(0.05620960028505526 0.001789610429509293 0)
(0.05524598457671868 0.001623508761499762 0)
(0.05430462105549538 0.001461800851004994 -8.704388315005717e-30)
(0.05339369254236429 0.001310147689784885 0)
(0.052509712595249 0.001169495660842993 8.30841199522579e-30)
(0.05166328089222082 0.001041662581486134 1.215552074461292e-29)
(0.05084588893867467 0.0009257436151402331 2.042928829332751e-30)
(0.05007078937092481 0.0008233542396226083 2.011622181769114e-30)
(0.04932283876862582 0.0007324667469418244 1.926539851217017e-30)
(0.04862119719798196 0.0006548868835544717 1.908200949897768e-30)
(0.04794054053534479 0.0005876761846471733 -1.890898451273197e-30)
(0.04730847756752943 0.0005318974492334405 -1.874193086692347e-30)
(0.04668742971092394 0.0004836585441095732 0)
(0.04611931149185845 0.0004444364444515954 0)
(0.04554704854549784 0.0004113888662624541 0)
(0.04504010658445196 0.0003849483862924465 0)
(0.04449061441148491 0.0003655398809913848 0)
(0.04408392402019754 0.0003559938939249748 2.20650110802794e-31)
(0.06811797993201707 0.0004719493336251581 2.461854075533974e-29)
(0.06849521667985937 0.001178992195224271 4.428291544695002e-29)
(0.06901197781085752 0.001640413475671595 6.409744119159014e-29)
(0.06947790433903693 0.001993314534474825 2.076437574279715e-29)
(0.06980617119812939 0.002256532160830873 0)
(0.07011716219516247 0.00249052264348472 0)
(0.07035447827959157 0.002657993244615052 -3.604487630727186e-29)
(0.0706194471931034 0.002795687049489885 0)
(0.07080222403826866 0.002907648917447569 0)
(0.07093510149984732 0.002995691655037559 0)
(0.07103389065597382 0.00306667185870041 0)
(0.07109516633380061 0.003116613818293337 -2.984969161327808e-29)
(0.0711230758585841 0.003153189683112375 4.303779402853235e-29)
(0.07111466149200725 0.003146125301134986 0)
(0.07106896971103406 0.003119993603940659 -2.628389304193853e-29)
(0.07098248196391314 0.003068590213749654 1.269950473737542e-29)
(0.07085649102880984 0.002995974778848521 1.188292759837868e-29)
(0.07069403298204618 0.002901852827538796 -3.445460124194032e-29)
(0.07049933925542737 0.002790774043911824 0)
(0.07027423462558285 0.002669281690649298 -2.585778845488759e-31)
(0.07001879286048905 0.002541598204818696 -2.014191961892462e-29)
(0.06973363930067662 0.002409456548559828 -9.820017523668372e-30)
(0.06942077725013544 0.002272799933166154 0)
(0.06908324720936716 0.002136680399307308 -9.172923486726228e-30)
(0.06872442660064672 0.002007504230298735 1.756186190045796e-29)
(0.06834840662467197 0.001882904510819049 0)
(0.0679586056131479 0.001763671019683094 2.327405067987307e-31)
(0.06755892857964743 0.001650608619534662 -8.101982018203188e-30)
(0.06715211426030555 0.001545357316260317 -3.986240027092413e-30)
(0.06674254669428435 0.001447982939656796 -3.930946766701606e-30)
(0.0663267652745836 0.001356323409069293 7.916097715402927e-30)
(0.06591315233756674 0.001273944203199769 0)
(0.06549730647689031 0.001199772351976357 0)
(0.06508994445578245 0.001135055655417723 0)
(0.06467959741071713 0.001076998751209374 0)
(0.06428412113112084 0.001027163579612545 -3.711356366273051e-30)
(0.06387856247599584 0.0009818570148456894 -3.664064054028386e-30)
(0.06350458595665412 0.0009448258955270172 -1.808891598402213e-30)
(0.06308519706511947 0.0009079883633065786 1.781695759444062e-30)
(0.06277868505375708 0.0008804851587772197 -4.370070728990881e-31)
(0.0680669857112399 0.0003856756227722717 4.2362063058461e-29)
(0.06826913347318442 0.001035393949266723 -8.603718851393437e-29)
(0.06859378087985867 0.001490307580235581 -4.223442922915129e-29)
(0.06894339075831073 0.001817841670696119 3.90745546187215e-29)
(0.0692661579049544 0.002070514891016758 0)
(0.06957575195986153 0.002281812828285952 0)
(0.06988382336031804 0.002455373527949236 3.605597605925233e-29)
(0.07017559701730151 0.002590576662667118 0)
(0.07045968460599671 0.002707542078429635 0)
(0.07072255543954975 0.002803118745051313 0)
(0.07098407158246967 0.002881856583122233 3.079026971760569e-29)
(0.07121910182571396 0.002937398014671088 2.984979613222841e-29)
(0.07145697773189062 0.0029756901758003 -2.86436886849968e-29)
(0.07166514871314544 0.002990816646546249 0)
(0.07187747153350998 0.002983248538494871 -9.690731443052425e-32)
(0.07204892835963533 0.002957200277718806 -2.51479768498575e-29)
(0.07223925500199969 0.002912855179461275 2.431412118252758e-29)
(0.07238631953672364 0.002853007014397467 2.309422081430569e-29)
(0.07250308518917564 0.002780734274112232 0)
(0.07259477374827555 0.002695108022151806 3.224049345867222e-29)
(0.07265964043756956 0.002599905394986636 3.10182014942304e-29)
(0.07269675810490743 0.002497625073339742 2.989845417214678e-29)
(0.0727110708295553 0.002389168342338957 -1.942412080389395e-29)
(0.07270258503420453 0.002277011612527056 2.798366287467611e-29)
(0.07267276322027981 0.002163943898809322 -8.895691464715023e-30)
(0.07262339710383571 0.002053319523913753 1.78211852907508e-29)
(0.07255639085820363 0.001946780170209005 8.938241668267791e-30)
(0.07247415911038388 0.001843708253098978 0)
(0.07237976202558216 0.001746025652046531 -8.360656667382736e-30)
(0.07227499120182838 0.001655955352913892 -8.207424734032535e-30)
(0.07216041140039386 0.001574001376709286 -7.89652816654006e-30)
(0.07203680675496263 0.001499442901965999 0)
(0.07190558073374205 0.001431727530507253 7.821635350155834e-30)
(0.07176862460898052 0.001369454256309122 7.708395468684518e-30)
(0.07162661454863486 0.001313068921099779 0)
(0.07148083105196182 0.001263529340930034 3.700110722618184e-30)
(0.07133063058676875 0.001221809737131129 3.652595146935885e-30)
(0.0711807164881719 0.001186561669872477 1.803053816011256e-30)
(0.0710199530205313 0.0011518645870646 1.722202091529257e-32)
(0.07088886974660209 0.001121499366213507 8.836100845127208e-31)
(0.06804241187584305 0.0002597530409846626 -4.236476624058568e-29)
(0.06815265882366893 0.0007391702698136907 4.174910572396783e-29)
(0.06836743384943114 0.001129168510029872 0)
(0.06862881496143403 0.001440251343223074 3.667509801701851e-29)
(0.0688947188011243 0.001695824613944361 0)
(0.06915282624837824 0.001909081262967104 -7.151543926857564e-29)
(0.06941772019923677 0.002091140496362982 0)
(0.06967938939246195 0.002240643363421079 0)
(0.06994379980775026 0.002369119920584761 3.258345760586241e-29)
(0.0702015614443313 0.002475365152849956 -3.153868071433261e-29)
(0.07046389569327348 0.002563957072564844 -3.079989192113398e-29)
(0.07072062235062024 0.002632120323104147 0)
(0.07098074206877296 0.002682623137017202 0)
(0.07123315991105733 0.002713431823656301 0)
(0.07148287378884421 0.002727162151069438 2.637937636832775e-29)
(0.07171442611479927 0.002721121680186497 2.545971434440727e-29)
(0.07193838621011669 0.002695383380100829 -4.884698824093935e-29)
(0.07214231864610912 0.002657344401981672 -2.364253233300365e-29)
(0.07233730178455035 0.002605611523153331 0)
(0.07251180578164988 0.002542579793755619 3.616038094958041e-31)
(0.07267466359265962 0.00246517208973484 -4.205693592782542e-29)
(0.07281340729397311 0.002382273069763861 -2.0090460729962e-29)
(0.07294045724700809 0.002288862644483765 1.942279790856923e-29)
(0.0730438624372723 0.002196888073796002 -3.811788430947863e-29)
(0.07313813048295723 0.002097319414208217 0)
(0.07320895023440016 0.002004187563406179 -1.781697636115183e-29)
(0.07328244665036895 0.001910810190947251 -3.524157142783851e-29)
(0.07333220361773136 0.001821548381120245 0)
(0.07336848311358893 0.001736777252448539 8.35719727160435e-30)
(0.0733951623255068 0.001658354144111494 8.203558400890615e-30)
(0.07341238277948005 0.00158615629521719 0)
(0.07342152534606733 0.001520068106876217 0)
(0.0734250113321481 0.001457600118134439 -1.577000139142464e-29)
(0.07342398801765117 0.001403259114105512 -7.703006704464692e-30)
(0.07341852178333369 0.001354240036247183 0)
(0.07340888621347591 0.001312001927142435 -7.580384564142229e-30)
(0.07339538271417699 0.001273274183652948 3.731303982617156e-30)
(0.0733795577164405 0.001241100296377588 0)
(0.07335909249748877 0.001209711526490809 -5.406761407591177e-30)
(0.07334492644154976 0.00118468888543419 -8.826929145974382e-31)
(0.06803400659478923 0.0002070574616856591 0)
(0.06810683558251768 0.0006079918321142566 7.619376567474643e-29)
(0.06826023946128434 0.0009616757596137956 0)
(0.06846002759180278 0.001257004696509478 -1.491433966087025e-28)
(0.06867594725838536 0.00150368864289827 0)
(0.06889533541189824 0.001711542356664571 7.152997613852144e-29)
(0.06912131974825542 0.001888957564599084 0)
(0.0693505915668738 0.002037213652638892 0)
(0.06958283340087987 0.002161770301172967 -3.259147235154554e-29)
(0.06981374471791368 0.002264354484213043 3.154680688472028e-29)
(0.07004627572559791 0.002348121776015966 -6.039294237037962e-29)
(0.0702775941421053 0.002412877920566675 0)
(0.07050939605522631 0.002459939595636479 0)
(0.07073766164643401 0.002488961256355438 0)
(0.0709641250527675 0.002501242772569836 -5.2901689179361e-29)
(0.07118459526144003 0.00249744334798323 -2.546749365059551e-29)
(0.07140002378979525 0.002478645490151433 2.453553541032448e-29)
(0.07160540628748209 0.002447852654058041 7.135562579774655e-29)
(0.07180386201161339 0.00240549100403926 0)
(0.07199163688732006 0.002352688347252994 -2.199405693311841e-29)
(0.0721704699216929 0.002289967426646546 4.281208900077197e-29)
(0.07233603465958623 0.002220529933333451 2.090261151007357e-29)
(0.07249068329286736 0.002144938910016425 -2.02757718710253e-29)
(0.07263154063157419 0.002066176035743455 1.929948174447023e-29)
(0.07276130552384857 0.001985590929830543 0)
(0.07287572814947429 0.001905483042963212 0)
(0.07297983744423189 0.001824890094152777 1.784090629288137e-29)
(0.07307184861297752 0.001749281821241644 0)
(0.07315577906867289 0.001677069642589456 0)
(0.0732306325135243 0.001608714835951264 -1.708410618536344e-29)
(0.07329942593267719 0.001546163826845435 -1.675409586993508e-29)
(0.07336480242431102 0.001486620650875918 0)
(0.07341582864318555 0.001430559137424842 1.603661771395206e-29)
(0.07346232207542829 0.001379193534102192 0)
(0.07350433349835417 0.001332676128632225 0)
(0.07354498500371769 0.001291038102692416 7.580015676405015e-30)
(0.07357850209287675 0.001254453224764545 -3.731043376343572e-30)
(0.07361673823469819 0.001221629894985618 3.708540678100749e-30)
(0.07364910081259443 0.001193804519633613 3.615104875093501e-30)
(0.07368671454026347 0.00116951338898159 0)
(0.06802894022357754 0.0001695281187883459 0)
(0.06807914389992367 0.0005012791614780698 -2.852135053871112e-30)
(0.06819015092776297 0.0008045108055704331 0)
(0.068343768909435 0.001067996088026737 7.338111919578436e-29)
(0.06851959668905461 0.001294878707791771 0)
(0.06870588902235771 0.001489921130735429 6.823176037089452e-29)
(0.06890120772733739 0.001658791984194586 0)
(0.06910299592415702 0.001802909561425601 0)
(0.06930965896447099 0.001925327351988756 6.325310583949831e-29)
(0.06951805351960501 0.002027657189654472 0)
(0.06972822925847369 0.002112040084883097 6.040617304004038e-29)
(0.06993841820938265 0.00217887049129004 0)
(0.0701486997659654 0.002229100641346966 0)
(0.07035672156814135 0.00226301693752015 0)
(0.07056246543199886 0.002281479471945977 5.291490850058455e-29)
(0.07076349537702198 0.002285147507275782 5.121975912070921e-29)
(0.07095989073437348 0.002274909626633429 0)
(0.07114897715120069 0.002252319548466236 -9.575629016129195e-29)
(0.07133158692538163 0.002218378674488633 0)
(0.07150582684919581 0.002174567006993474 0)
(0.07167256378909424 0.002121656606001236 2.214979911447959e-29)
(0.07182940466198143 0.002062163543508108 -6.334867362956814e-29)
(0.071977863032354 0.001996799963549959 2.028118835436367e-29)
(0.072115835403972 0.001928274185756084 2.004917685343186e-29)
(0.07224522337497137 0.001857047347009397 0)
(0.07236446846814622 0.001785932801648011 0)
(0.07247610772978404 0.001715087189646323 0)
(0.07257855729096953 0.001647372718106784 0)
(0.07267484766184769 0.001581742214746496 0)
(0.07276359536311534 0.001519479201546176 1.708790243048971e-29)
(0.07284734421630254 0.001459712884537209 1.675768261710044e-29)
(0.07292579250823468 0.001405178282901693 0)
(0.07300136606920317 0.001355237215261118 8.319975283930122e-30)
(0.07307163496587456 0.001310930162863069 1.610076713457964e-29)
(0.07314054429070213 0.001269103968142871 0)
(0.07320356872830643 0.00123287082307843 0)
(0.07326671316670651 0.001198830191994826 7.623344100196275e-30)
(0.07332389827631158 0.001169933903744703 3.778695636074896e-30)
(0.0733840242207119 0.001142343889986276 -3.67870841788479e-30)
(0.07343424362303996 0.001120646510260523 -1.806131027598246e-30)
(0.06802613971207264 0.0001428555053274875 0)
(0.06806349663570919 0.000423873630735264 -1.442529490799966e-28)
(0.06814825821504387 0.0006879345944583545 0)
(0.06827033758845831 0.0009255008012847605 0)
(0.06841563223641667 0.00113524346300882 0)
(0.0685746135925422 0.001318686790798532 -1.526225353536756e-30)
(0.06874431550373093 0.001479135677320293 0)
(0.06892216010772009 0.001617777030710411 0)
(0.06910630287982658 0.001736501094751495 -6.32633793663253e-29)
(0.06929390834295811 0.001836425919492703 -6.075042040790267e-29)
(0.06948415159988987 0.001919188352062118 0)
(0.06967522763916861 0.001985379544818467 0)
(0.06986686277615445 0.002035936171550993 0)
(0.07005700674705989 0.002071281500423755 -5.439047256954043e-29)
(0.07024547599193309 0.002092233232072866 0)
(0.07043008625633237 0.002099466924206145 -5.123067165024595e-29)
(0.07061097571133222 0.002093872559962073 0)
(0.07078591446140235 0.002076703745037131 9.634978346900823e-29)
(0.07095563210552341 0.002048991833392058 0)
(0.07111811186217813 0.002012218139491264 0)
(0.07127441559735605 0.00196714504091693 4.842703285755347e-31)
(0.07142221570199331 0.00191578817177937 4.245001820038879e-29)
(0.07156301386720242 0.001858896999900979 0)
(0.07169474876485113 0.00179885810589356 -2.005367535645692e-29)
(0.07181952749260309 0.001736162754769267 3.967485953396922e-29)
(0.07193546728674501 0.001673358295788222 0)
(0.07204524255647454 0.001610236064312033 -1.889224753168602e-29)
(0.07214682506389322 0.001549243761624777 -1.846200727251804e-29)
(0.07224349520320841 0.00148951758774523 0)
(0.072333133155353 0.001433209338662178 0)
(0.07241938836420272 0.001378989107893934 0)
(0.07249931498628072 0.001329562368976565 -1.696049867643432e-29)
(0.0725774780186864 0.001282877660700489 2.199336835380053e-31)
(0.07265031636616441 0.001241071981378805 -1.610399269472001e-29)
(0.07272330632533756 0.001201288502837624 0)
(0.07279095615772732 0.001166594733071694 0)
(0.07286008171397967 0.00113395532119431 -7.624803556691719e-30)
(0.07292315516816558 0.00110635417345306 -7.489154117866291e-30)
(0.07299083666409757 0.001080327936031166 3.679387414204695e-30)
(0.07304603702058074 0.001059349008498461 3.625605712394562e-30)
(0.0680243938132596 0.000122687260849987 -6.895624439931905e-29)
(0.06805366690594442 0.0003645999724752543 2.118943438186142e-30)
(0.06812073496056938 0.0005952211260424927 0)
(0.06821957039733792 0.0008070871106876758 0)
(0.06834050301552777 0.0009975180440385399 0)
(0.06847631033197957 0.001166430354303317 -6.672088472581533e-29)
(0.06862393984158512 0.001315718139684178 0)
(0.06878074628265644 0.001446139527999606 -6.277574270748309e-29)
(0.06894487096086864 0.001558963617840289 0)
(0.06911364834102383 0.001654847873095417 7.583646934105899e-31)
(0.06928600491739016 0.001735053054521844 5.856278912613119e-29)
(0.06945999436171081 0.001800058162218538 0)
(0.06963519817059458 0.001850711838104805 0)
(0.06980963583843744 0.001887363748104354 2.229050470263502e-31)
(0.06998313568461169 0.001910766030909641 0)
(0.07015365647935869 0.001921504081730134 -5.128843289215356e-29)
(0.0703214052207717 0.001920410849503948 0)
(0.07048433229909563 0.001908500950289635 -9.681763660464952e-29)
(0.07064310517158286 0.00188668635046384 0)
(0.0707957330100311 0.001856304125135624 -4.588495870235039e-29)
(0.07094328296200092 0.001818150266127783 -4.423348078853804e-29)
(0.07108364742636193 0.00177400116029605 4.345924708002674e-29)
(0.07121831380270177 0.001724606158352312 0)
(0.07134523907234354 0.001672066679374846 4.125157838244527e-29)
(0.07146647384296238 0.001616799561152182 -3.968247490744601e-29)
(0.07157995767668172 0.001561026244021718 -3.9262665275738e-29)
(0.07168834164172287 0.001504559431765004 5.724109409537173e-29)
(0.07178940907392962 0.001449676201466346 1.846543610371268e-29)
(0.07188645749654457 0.001395581438248817 -1.832330884501978e-29)
(0.07197693026587547 0.001344469937524675 -1.792818723291641e-29)
(0.07206467315830889 0.001294874367613424 -1.755037714608827e-29)
(0.07214635455678503 0.001249213622576127 1.696348758088801e-29)
(0.07222666126689271 0.001205514437644128 2.07846824959675e-31)
(0.07230160534398128 0.001166271601048764 0)
(0.07237673058226776 0.001128980980373855 0)
(0.07244665019889519 0.001096394586894955 0)
(0.07251793382223613 0.001065838905883246 0)
(0.07258319944094246 0.001040070238105754 -7.618541009908112e-30)
(0.07265266910644827 0.001016055476062595 0)
(0.0727101468356577 0.0009965943358606845 -1.819442076048765e-30)
(0.06802318356659071 0.0001066677360343355 6.895674397024899e-29)
(0.06804688452077558 0.0003171848609763683 6.878865949855642e-29)
(0.06810146848962145 0.0005195423018928577 0)
(0.06818311518775018 0.0007081969383990299 -1.316288549312027e-28)
(0.06828508470279548 0.0008804127881389855 0)
(0.06840194969768663 0.001035214935620212 0)
(0.06853103359192368 0.001173517849068528 0)
(0.06866977562194984 0.001295571365438315 6.278244845603613e-29)
(0.06881640436102456 0.001402210652697759 0)
(0.06896842214700474 0.001493705590112717 6.000844936642713e-29)
(0.06912472124471904 0.00157099329384564 -1.165397286794452e-28)
(0.06928330656562127 0.001634355536130988 0)
(0.06944369881450754 0.001684530219609229 -5.529431260582081e-29)
(0.06960397524589201 0.001721767814767319 5.41852705266815e-29)
(0.06976400515432082 0.001746753526290092 0)
(0.06992184933046819 0.001759967992074577 5.129666999845648e-29)
(0.07007777481934654 0.001762167215195591 0)
(0.07022983549190789 0.001754207406003566 4.851500556884114e-29)
(0.07037872552226809 0.001736916825083041 0)
(0.07052250185376197 0.001711531533521195 9.207913443727222e-29)
(0.07066226958467434 0.001678839627531152 -4.500570907592813e-29)
(0.07079600270731357 0.001640462026402232 -4.346671009296314e-29)
(0.07092521143681128 0.001597081422270731 0)
(0.07104782804746709 0.001550599472665215 -4.125862089065351e-29)
(0.0711658817354686 0.001501368149672468 4.072557384253899e-29)
(0.07127721179390008 0.001451418575394825 3.926926152241848e-29)
(0.07138443385429327 0.001400583336452391 -3.835166669854795e-29)
(0.07148515952762001 0.001350949746894915 -3.797511156706322e-29)
(0.07158263159027282 0.00130173596180434 5.546103402096377e-29)
(0.07167404032516943 0.001255034738873072 5.425802852485303e-29)
(0.07176327163449926 0.001209458757305258 1.75531430733537e-29)
(0.07184685400002154 0.001167299089949344 0)
(0.07192944799557276 0.001126754293273943 -3.387623866495966e-29)
(0.07200684403513201 0.00109022172840703 -1.668131947698584e-29)
(0.07208445870694784 0.001055482293145177 0)
(0.07215694072124278 0.001025024486671978 -1.60010354017224e-29)
(0.07223068220414644 0.000996527000121869 0)
(0.07229839206797611 0.0009725321315954027 -5.7232234042462e-32)
(0.07236999580277305 0.0009504600932972907 0)
(0.07243004819014502 0.0009326940035865095 1.841789919908599e-30)
(0.06802230567879423 9.355864139216568e-05 0)
(0.06804197919594092 0.0002782665242530317 0)
(0.0680874406078925 0.0004567449207876977 0)
(0.06815610542184973 0.0006248238112388252 2.603602403448255e-28)
(0.06824310411771937 0.0007800561706622614 -1.272764568861152e-28)
(0.06834433255706564 0.0009210664109949796 0)
(0.06845762545330895 0.00104819423283326 0)
(0.06858067133707478 0.001161339092709304 0)
(0.06871186278517885 0.001261058430127769 -1.194620078551087e-28)
(0.06884888957825799 0.001347359591261195 0)
(0.06899069649928906 0.001420934281871919 5.797586823106312e-29)
(0.0691353279158318 0.001481882782405749 0)
(0.06928229173066525 0.001530820088821278 3.525258403253721e-31)
(0.06942973488244539 0.001567883236100581 -5.370501924860401e-29)
(0.06957756030686908 0.001593666189632448 0)
(0.06972392397151153 0.001608533432566576 0)
(0.06986913434659706 0.001613155113579763 0)
(0.07001134190010612 0.001608258877210782 0)
(0.07015126694912599 0.001594600099587353 -4.759885688447813e-29)
(0.07028703336812848 0.001573302179986331 -4.619337180184973e-29)
(0.07041975601717267 0.001545115846227107 4.501259634446648e-29)
(0.07054747576318354 0.001511523048546478 0)
(0.07067169755571917 0.001473159127151253 0)
(0.070790373369312 0.001431759839130791 4.215171869883909e-29)
(0.0709054785863137 0.001387654677364517 -4.073177211959171e-29)
(0.07101482337554486 0.001342692953887857 4.022411717690014e-29)
(0.07112092370915217 0.001296727883570989 0)
(0.07122132273345025 0.001251644315773883 -4.526231383263338e-31)
(0.07131914455184568 0.001206736892223935 -3.714017478663899e-29)
(0.0714115012446913 0.001163934644262767 -3.633220534410546e-29)
(0.07150218035786585 0.001122011790575131 0)
(0.07158767268382556 0.00108304904977714 0)
(0.07167248487671354 0.001045440432493607 1.703734832607819e-29)
(0.07175235317320156 0.001011384865228416 1.668358493616422e-29)
(0.07183251044714802 0.000978998259071792 0)
(0.07190768892005661 0.0009505547008953419 1.600314592315782e-29)
(0.07198408452429154 0.0009241037154666 0)
(0.07205449355932901 0.0009019507134829413 -5.271990199296368e-32)
(0.07212861120435923 0.000881956255493692 0)
(0.07219135098655506 0.0008659996623724262 -1.842018500020911e-30)
(0.06802164359506736 8.259746425562404e-05 0)
(0.06803828491473526 0.0002456451242228833 0)
(0.06807682836921614 0.0004036956244204134 0)
(0.06813542870190481 0.0005535519806579263 -1.287302674317969e-28)
(0.06821044242006814 0.0006931553892249652 1.27282715452004e-28)
(0.06829873658809892 0.0008210578152646995 0)
(0.06839862018756794 0.0009372829108993692 0)
(0.06850810101480953 0.001041521072929401 1.19896956255001e-28)
(0.0686257670829767 0.001134136146017456 2.374049410317642e-28)
(0.06874951262097156 0.001214964882799202 0)
(0.06887835196525319 0.001284492571885194 0)
(0.06901042594740214 0.001342655738075379 0)
(0.06914524824977082 0.001389925678000179 5.495510736060274e-29)
(0.06928106297541202 0.001426321641460857 5.37113746249638e-29)
(0.06941779379224819 0.001452329866797424 0)
(0.06955370951382032 0.00146820146999117 0)
(0.06968913539416548 0.001474516883087974 0)
(0.0698223319922191 0.001471890288055343 0)
(0.06995401909211868 0.001461008656010662 4.760527575262057e-29)
(0.07008241789726886 0.001442886799683523 0)
(0.07020862708485665 0.001418238864657068 4.558754098192186e-29)
(0.07033077742435531 0.001388429872115634 4.454115189926316e-29)
(0.07045033312384984 0.001354071045654261 0)
(0.07056530545665124 0.001316757927330562 -8.469087993295653e-29)
(0.07067758138288144 0.001276818530783 -4.157279689930969e-29)
(0.07078500050871644 0.0012359343140956 -4.022963449029175e-29)
(0.07088994424209551 0.001193995390544204 0)
(0.07098996822806254 0.001152701340344487 3.843852054924488e-29)
(0.07108803429616035 0.001111442314625075 0)
(0.07118126946604525 0.001071958562730987 0)
(0.07127328645324413 0.001033184797312419 0)
(0.07136061469861571 0.0009969846541014215 -3.555922769881032e-29)
(0.07144755743824423 0.0009619754746766532 0)
(0.07152989699349188 0.0009301630329191437 0)
(0.07161264032070715 0.0008999826459549473 0)
(0.07169062513149295 0.0008735024271411621 1.62693184229076e-29)
(0.07176980259578761 0.0008491148404434878 0)
(0.07184309379914235 0.0008288660539519683 1.55109702070455e-29)
(0.07191990405958157 0.000811043765326588 0)
(0.07198557225456254 0.0007970210899117717 -3.719325290641135e-30)
(0.06802112763068047 7.327348528718549e-05 0)
(0.06803540959264288 0.0002178387845410172 -1.251732621212978e-28)
(0.06806854882072459 0.0003582293906722471 0)
(0.0681191745793478 0.0004919649167684805 -1.237734553410683e-28)
(0.06818447135662327 0.0006173468605656786 0)
(0.06826201868174696 0.0007330142845856375 0)
(0.06835049906219445 0.000838815637071466 0)
(0.068448238493841 0.0009343325188868303 -1.199051483884121e-28)
(0.06855403182594486 0.001019791569838787 -1.179415115783783e-28)
(0.0686660094966462 0.001094946660576752 0)
(0.06878323922022074 0.001160121518081091 0)
(0.06890399996030873 0.001215130950806886 0)
(0.06902780953676113 0.001260288532998383 0)
(0.06915305176378216 0.001295505777563191 1.064457693428001e-28)
(0.06927964469191054 0.001321153654811591 0)
(0.06940600759940625 0.001337385941502981 0)
(0.06953244738662841 0.001344691822467237 0)
(0.0696573579999633 0.001343585046557317 -9.788854073775343e-29)
(0.06978142431982824 0.001334684656752747 9.578000521179625e-29)
(0.06990300309677316 0.00131890306673762 -4.685008016003873e-29)
(0.07002314589351573 0.001296925433663954 -9.142070483130376e-29)
(0.07014010289557276 0.001270018908857642 -4.454676130729598e-29)
(0.07025526997385409 0.001238782315676178 0)
(0.07036674756269225 0.001204687709451552 -3.423749646842564e-31)
(0.07047630645541102 0.001168073259743367 4.157804730214403e-29)
(0.07058185768160975 0.001130472473294983 0)
(0.07068562665582576 0.001091823305309259 0)
(0.07078524126923492 0.001053651879368706 3.925014830592912e-29)
(0.07088347046918674 0.001015443247007897 0)
(0.07097752346299283 0.0009787453407274153 0)
(0.071070794987977 0.0009426491727830697 3.67201098296752e-29)
(0.07115991664388989 0.0009088181743342484 3.556341389553474e-29)
(0.07124894855208788 0.0008760947264135704 0)
(0.07133378022759787 0.0008463005290316425 0)
(0.07141915444319816 0.000818153909177004 0)
(0.07150004378736891 0.0007935350586140499 -1.627111291425167e-29)
(0.07158211588558817 0.0007711545694540111 0)
(0.07165843911592018 0.0007528166292432864 -7.780328152702831e-30)