/*--------------------------------*- C++ -*----------------------------------*\
| =========                 |                                                 |
| \\      /  F ield         | OpenFOAM: The Open Source CFD Toolbox           |
|  \\    /   O peration     | Version:  2206                                  |
|   \\  /    A nd           | Website:  www.openfoam.com                      |
|    \\/     M anipulation  |                                                 |
\*---------------------------------------------------------------------------*/
FoamFile
{
    version     2.0;
    format      ascii;
    arch        "LSB;label=32;scalar=64";
    class       surfaceVectorField;
    location    "2";
    object      Uf;
}
// * * * * * * * * * * * * * * * * * * * * * * * * * * * * * * * * * * * * * //

dimensions      [0 1 -1 0 0 0 0];

internalField   nonuniform List<vector> 
35915
(
(0.06664044518517123 0.001416092807747397 -6.252443569182031e-30)
(0.06730281582998456 0.001377556195977002 1.232256978256762e-29)
(0.06451923608373732 0.001894130641574004 -6.427335353796669e-31)
(0.06713683568219676 0.002121218906440145 -6.935998974784295e-30)
(0.06225149949907009 0.002013271486933553 1.091898217043746e-29)
(0.06646926090413557 0.002267754545036793 -1.205764578436341e-29)
(0.05990145477927742 0.002074786003953901 1.040558472435545e-29)
(0.06531356014494727 0.002350070088138141 1.008371082956347e-29)
(0.05746735186531258 0.002109498019783668 9.978210227298231e-30)
(0.06403479062550257 0.002434135844723742 -1.017859730374631e-29)
(0.05498676699019268 0.002112010042531552 4.881892923370829e-30)
(0.06271850152241193 0.002480625226182656 3.201778912079638e-31)
(0.05248919187039368 0.002086298897542344 0)
(0.06134836737423413 0.002497622532097495 -9.203126720797303e-30)
(0.04999848008261462 0.002040389419609026 0)
(0.05991965851515355 0.002490765755441884 0)
(0.04753017688217751 0.001980041892908468 0)
(0.05844550541204022 0.002468363211767642 8.522410207754156e-30)
(0.0450952800620898 0.001910283509888529 0)
(0.05694399124787587 0.002434962373475881 0)
(0.04269965826001564 0.001838090803577396 -3.83027550283923e-30)
(0.05542635937528289 0.002395692448584025 7.880399250313089e-30)
(0.04034254371882681 0.001743893998971514 -3.830277819883746e-30)
(0.05389545678164443 0.002357189951672439 -1.060297788036063e-30)
(0.0380367547060675 0.001595210589007657 -3.500951337279734e-30)
(0.05237234180271775 0.002305868561058036 7.230666590054971e-30)
(0.03581290303827987 0.001417759072212049 -3.500953395149448e-30)
(0.05082167728169623 0.002223934094909464 -6.501996203883451e-30)
(0.03369325635558426 0.001248220563043128 3.16006491143337e-30)
(0.04932104724440298 0.002119730893756449 6.576232241221997e-30)
(0.03168993901666774 0.001088569095915966 6.164301673369328e-30)
(0.04785069396787014 0.002003402362266159 -8.579472378185339e-31)
(0.02981212244902116 0.0009375846144709806 3.00423664312638e-30)
(0.04641500421539122 0.001877901458473962 -6.884524430801827e-30)
(0.02806782724310874 0.0007931650490487027 0)
(0.04502934882992998 0.001744379031592569 5.714162792561088e-30)
(0.02646327474613941 0.0006560422386677467 0)
(0.04370365427974427 0.001604634362127338 0)
(0.02500372468564045 0.0005290271559302269 -2.489524711480383e-30)
(0.04244403671066543 0.00145962908703192 0)
(0.02369188429966836 0.0004140581868851491 -9.906350709227221e-32)
(0.04125149769492789 0.001311915776611449 5.541068238476236e-30)
(0.02252219537614801 0.0003129910844968686 2.390463671944914e-30)
(0.04013412638321714 0.00116976022379067 -5.220094900776908e-30)
(0.02148625983023925 0.0002259970444480631 0)
(0.03909090828253689 0.001036002468702528 0)
(0.020575896028805 0.0001522620756131743 2.167124377775379e-30)
(0.0381238464323122 0.000910426121124266 0)
(0.01978222306246931 9.074505158451697e-05 2.167125355559061e-30)
(0.03722863114437578 0.0007937305475281555 -1.123043405129856e-31)
(0.01909472263470158 4.063162287294042e-05 0)
(0.03640444499398519 0.0006875532768418907 0)
(0.01850246845956676 6.189069066235632e-07 0)
(0.03564367822370066 0.0005923023827591515 0)
(0.01799382695624814 -3.101201447560839e-05 -1.004196278640676e-30)
(0.03494676696537229 0.0005086852694282826 -4.100245070366286e-30)
(0.01755810347220232 -5.530601266765522e-05 -1.004196651895619e-30)
(0.03430322299695886 0.0004357630247080225 1.911060615455101e-30)
(0.01718469141913675 -7.28968894634875e-05 -9.8158161329767e-31)
(0.03371484994578645 0.0003734476488326545 0)
(0.01686423953151772 -8.453638747772245e-05 -9.815819317973667e-31)
(0.03316805829914059 0.0003204838027757421 -1.274445089020943e-31)
(0.01658726171013493 -9.097321223382548e-05 0)
(0.0326694181173279 0.0002770063869970719 1.944478095111941e-30)
(0.01634580271282219 -9.326743473371615e-05 0)
(0.03219955506466408 0.0002414844951426811 0)
(0.01613247055012134 -9.234555758857485e-05 0)
(0.03177157119349847 0.0002133548955180972 0)
(0.01594174460211657 -8.908897233351455e-05 0)
(0.03135905592362991 0.0001907461313309455 0)
(0.01576844933851579 -8.390492112484919e-05 0)
(0.03098675972942229 0.0001733131365109918 0)
(0.01560827340738283 -7.771574699830673e-05 0)
(0.03061451884464662 0.0001601916833868273 0)
(0.01545821342608695 -6.772731879852767e-05 2.267077526636104e-31)
(0.03028921606843259 0.0001500737713883562 9.121311523336625e-31)
(0.01531029796338867 -5.306650398989631e-05 1.147318226020405e-31)
(0.02993043118276608 0.0001479277076481257 -4.24631247095345e-31)
(0.02968083997397862 0.0001511572427552726 -1.168106035943658e-32)
(0.01515915074585244 -3.764841479179035e-05 -4.802346106058949e-32)
(0.06860106278131499 0.001758498531821991 6.855552104334009e-30)
(0.06815125172747072 0.0007944942582598909 3.112314868445433e-29)
(0.06910673945782848 0.002348083302015365 -2.20169580770838e-29)
(0.06862553677952606 0.00161554327664621 2.274949515474575e-29)
(0.06933140918730867 0.002568526125947278 -1.144435352341893e-29)
(0.06915885839176382 0.002043089017742237 -2.903911522872549e-29)
(0.06937301294064753 0.002695642792959393 -9.946515553896784e-30)
(0.06945030256897582 0.002308474538229366 -4.871704670343604e-30)
(0.06929500962401076 0.002807058263390881 -1.99088153880802e-29)
(0.06958867216157182 0.002512151376951385 1.478907847761565e-29)
(0.06909085081738828 0.002893720013720887 -1.405982260836535e-29)
(0.06966769580334006 0.00268480080284322 -4.85669775794419e-30)
(0.06877439446833092 0.002949136931347886 -9.203128772406846e-30)
(0.06965631115776592 0.0028141004165024 -1.646604753886437e-29)
(0.0683574155727209 0.002974824338723295 8.522406494532931e-30)
(0.06960595128765852 0.002907771285722398 -1.739202106720295e-29)
(0.0678553035146541 0.002982469693314716 8.522411761147122e-30)
(0.06946587507897556 0.00297050695654006 -2.059156547167693e-30)
(0.06727498350793361 0.002979566449885023 7.88039561127887e-30)
(0.06925966241456667 0.003015319169570956 0)
(0.06662293944433595 0.002969398563513544 1.167225506749703e-29)
(0.0689999881248612 0.003047778431694781 -2.108754424494218e-30)
(0.06591592677634171 0.002954738603634708 1.102252001638256e-29)
(0.0686893151810382 0.00306424940822853 3.791855195305518e-30)
(0.06515631625037051 0.002933861917781551 3.791785676081644e-30)
(0.06833515153536954 0.003065530700749099 -1.233077154526626e-30)
(0.06434596181482653 0.002896145193119145 3.137345255939082e-30)
(0.06793751245719827 0.003034344975925672 1.726680646152776e-29)
(0.06348245907128001 0.002833737820463598 3.45499799847309e-30)
(0.06749660606856941 0.002983294881582196 -1.216236242259936e-29)
(0.06257494215196431 0.002747043912400012 -1.206964955719273e-29)
(0.0670106955934695 0.002910984983025527 -1.573661078956518e-29)
(0.06163315002951706 0.00263849405072732 -3.234258572586004e-30)
(0.066484130905185 0.002819763315115361 -5.176185997472436e-30)
(0.06066699857939422 0.00251186630998477 5.714162635973741e-30)
(0.06592442819189237 0.002710603743717574 1.401569598288612e-29)
(0.05968449438917097 0.002369145680079488 0)
(0.06533844194863647 0.002587214837109097 0)
(0.05869155271838554 0.00221064209967348 7.468996707994588e-30)
(0.06473298995446504 0.002452649589340424 0)
(0.05769435703566685 0.002042873359886928 2.917573612526024e-31)
(0.064105422004455 0.002309192298805244 9.649568492436744e-30)
(0.05670279875285216 0.001873834877133959 -7.1772465520278e-30)
(0.06346468195641398 0.002161400642671418 -4.181560693342928e-30)
(0.05572734368747469 0.001706559236759349 0)
(0.06281511163712701 0.002011540186165375 0)
(0.05477481266350621 0.001542653273038658 -2.137554641531469e-30)
(0.06216453821416241 0.00186303964538523 0)
(0.05384829237576683 0.001385971904254052 -2.137555577543441e-30)
(0.06151444741468998 0.001720332652933023 -6.613579285126947e-30)
(0.05295098998011843 0.001239818719334297 0)
(0.06087097621890576 0.001584936276830608 0)
(0.05208554096480758 0.001105575790498386 -4.100242246961186e-30)
(0.06023409031199137 0.001457830284737418 0)
(0.05125397298067386 0.0009836995052763837 -1.091200267485007e-30)
(0.05961104127882601 0.001340329959357484 -4.938196899923768e-31)
(0.05045743955488221 0.0008745450886105169 3.009044625113059e-30)
(0.05899894379864663 0.00123237056105751 5.23932492126755e-30)
(0.04969627453481536 0.0007779063756552922 9.690263943576559e-31)
(0.05840661564095157 0.001134683834340348 0)
(0.04897126191044111 0.0006936722829756084 2.913503411161046e-30)
(0.05782475483242264 0.001045564283015969 9.690260588405739e-31)
(0.04828072325806691 0.0006212764371290949 1.944477274867294e-30)
(0.05726713110082817 0.0009676093794708594 -1.145120085860367e-31)
(0.04762378255252138 0.000559781064072083 0)
(0.05671888315352844 0.0008984857916809869 0)
(0.04699811207618552 0.0005077715543637246 0)
(0.05619917234542061 0.0008390820979841834 0)
(0.04640256719813525 0.0004640404456899481 0)
(0.05568347621837552 0.0007863437020626883 0)
(0.04583389626113116 0.0004279052696178009 0)
(0.05520167990113109 0.0007420327230502328 0)
(0.04529077128504256 0.0003981612308783703 9.121305207040898e-31)
(0.05471276985821338 0.0007033611575929227 0)
(0.04476929473189545 0.0003752369314601596 2.383585946262332e-31)
(0.0542723120231806 0.0006715907587532097 -1.038708967442782e-30)
(0.04427289992877134 0.0003607599587889498 -5.630603607231577e-31)
(0.05378787299627292 0.000644358558791299 -1.511703884803016e-31)
(0.05343127464364298 0.0006265242467385152 -3.318047680459361e-31)
(0.04379756249863353 0.0003541319963220867 4.742288228116542e-32)
(0.068351260577647 0.0008254784164816222 4.437772718545715e-29)
(0.06809248197367979 0.0004612329128546238 3.671062203819327e-30)
(0.06881333174711979 0.001409718965457996 2.370220417071265e-29)
(0.0683821722323079 0.001153469310838261 4.2706180486554e-30)
(0.06924975868458316 0.001816886047192864 -2.058689466050263e-29)
(0.06880287172461128 0.001606657999973187 1.759942535214836e-29)
(0.06962529219468386 0.002124947936281465 1.901866226716852e-29)
(0.0692106309631926 0.001932937007517081 -1.039849127612164e-29)
(0.06995450854003937 0.002373551570744719 2.941717624204054e-29)
(0.06953613711494185 0.002182931399571722 6.85256020250483e-30)
(0.07023912948967881 0.0025742793702326 -8.857756928201974e-30)
(0.06984641765228718 0.002400176989579261 1.832710029309505e-29)
(0.07048969475820667 0.002726857341409125 -2.624977628807682e-29)
(0.07011910048903865 0.002563533278445248 1.030085678126129e-29)
(0.07070452444036517 0.002851680106024647 -2.590458592089322e-29)
(0.07039746143904116 0.002692941103054582 1.710245680090079e-29)
(0.07086755409637142 0.002951677243643813 -8.51256655074123e-30)
(0.07063088594090049 0.002807478701573248 -8.512562966671513e-30)
(0.07098534607427992 0.003031184308687302 -7.866458677886341e-30)
(0.07082875527848119 0.002897530665083065 -1.599104760839141e-29)
(0.07106429511278262 0.003091640856973671 -7.866463319497278e-30)
(0.07100890720507907 0.00296883510661145 7.562611340107934e-30)
(0.071109565727781 0.003134898742853622 -7.213212382072833e-30)
(0.07115706061072763 0.003018986799938373 1.486901945862349e-29)
(0.07111997885810641 0.003149656775518103 1.342762872265478e-29)
(0.07128995649103531 0.003055128095224111 7.10115983259573e-30)
(0.07109257298391256 0.00313306031475626 9.07377029487591e-31)
(0.07138983819362026 0.003061764068236425 7.962362942803381e-30)
(0.07102620277740807 0.003094295171960981 -3.234886033240166e-29)
(0.07147315810859908 0.003049681217958102 -6.871955386111238e-30)
(0.07091921536300724 0.003032288514459576 -6.655605698818915e-30)
(0.07151564527792002 0.00301799154891743 8.137247940635412e-31)
(0.07077431587507896 0.00294892174176907 1.18612252357676e-29)
(0.0715478149458383 0.002964685086288141 1.815326860338561e-29)
(0.07059688420307836 0.002846322201122374 5.901454402469483e-30)
(0.07154011795541039 0.002888060649327407 -7.391068723718368e-30)
(0.07038744147690001 0.002730036523693131 0)
(0.07150115149109701 0.002796685704867837 1.127995596965278e-29)
(0.07014716954081095 0.002605447758476948 1.336398362056276e-31)
(0.07143443948369288 0.002692952487628336 0)
(0.06987659551934906 0.002475533664142827 4.927406649600453e-30)
(0.07133914730617204 0.002579800023025339 -1.616034039749651e-29)
(0.06957710930816365 0.002341132468835192 4.793769013185395e-30)
(0.0712151249495029 0.002460923138580852 -5.290891838467462e-30)
(0.06925171837122697 0.002204741403944582 0)
(0.07106584677881353 0.002336969747507058 0)
(0.06890336501285295 0.002072089875554047 -4.476022229837564e-30)
(0.07089283690999353 0.00221143368262273 9.453007600732169e-30)
(0.0685358898330197 0.001945198568429004 -4.476024136370823e-30)
(0.07069851579048411 0.00208785022117187 -9.025049025981574e-30)
(0.06815299082473718 0.001823279411260941 0)
(0.07048582528322041 0.001967879009427354 0)
(0.06775807035391627 0.001707130115221233 4.072751167715618e-30)
(0.07025742655528365 0.001852795438451466 0)
(0.06735511658247176 0.001597973060414287 6.175441452744998e-30)
(0.07001647903788286 0.00174332893858374 4.072750164349826e-30)
(0.06694661403184948 0.001496660765983657 2.102689511938841e-30)
(0.06976588166626128 0.001640918475222394 -1.612349155334289e-30)
(0.06653430720605412 0.001402145530788966 0)
(0.06950872164424382 0.00154703582273589 0)
(0.06611955752146589 0.001315128022319131 -1.93037368261075e-30)
(0.06924355096358906 0.001460358598604324 0)
(0.0657052569446773 0.001236853392438989 -1.9303742243668e-30)
(0.06897495078426495 0.001381953632009751 -1.930373025025861e-30)
(0.06529302876675575 0.001167409529276619 0)
(0.06870142272611046 0.001310756348046863 -3.934367723255743e-30)
(0.06488481713229995 0.001106022616528611 0)
(0.06842926903570004 0.001247334440709179 0)
(0.06448103300525279 0.001052075836981351 0)
(0.06815309408390995 0.001190166602599558 0)
(0.06408229347638369 0.001004503582770588 0)
(0.0678824659346232 0.001140808805059538 0)
(0.06368863919652842 0.0009633330574299245 -1.815904830961619e-30)
(0.067604586815368 0.001097049553713365 -1.859108728762694e-30)
(0.06329870095955753 0.0009263970894008697 -1.36973146834208e-30)
(0.06734264182139593 0.001061560529388966 -9.909698727316227e-31)
(0.06291869651865127 0.0008942256544232431 3.657444311444184e-33)
(0.0670525654784606 0.001024391442025945 4.461733574248964e-31)
(0.06683376990081434 0.0009937239730098077 -5.195137524470719e-31)
(0.06255151978128756 0.0008628806362572321 -1.893163108418182e-31)
(0.06817493661144142 0.0007105450523639855 -2.378204092034309e-29)
(0.068054698398706 0.0003042958285589803 -1.985397933049744e-29)
(0.06846378639625293 0.001262872394085335 -1.029948978962282e-30)
(0.06821089367274862 0.0008646174040987478 -2.217959891702361e-29)
(0.06878031752082339 0.001654104780277982 2.114967136217497e-29)
(0.06848059986373907 0.001290123092955198 2.114966387008616e-29)
(0.06910079013255592 0.001944212975380881 -1.944811196960748e-29)
(0.06878608639078257 0.001612459369862249 -3.794407346517703e-29)
(0.06941515809154757 0.00217619954303281 -1.121031071220906e-30)
(0.06908041057252534 0.001868557666542766 -1.94481170181487e-29)
(0.06973138991185358 0.002368626207694504 3.638807849413547e-29)
(0.0693642493700897 0.00208393861074367 3.767514232450772e-29)
(0.07003109276477572 0.002523002197463911 5.258920654694116e-29)
(0.06965072007304647 0.002263823567939155 1.806097789834569e-29)
(0.07031556608646088 0.002649078785879191 3.452824246922237e-29)
(0.0699274307306306 0.002408460597751372 1.8545844078768e-29)
(0.07059047514397522 0.002755341482544091 -1.599104070611532e-29)
(0.07020167203306361 0.002532562360526232 0)
(0.07085316556059129 0.002842491371229155 -5.619857877546574e-31)
(0.07046198231747533 0.002634833061824255 -7.054443303637221e-31)
(0.07110187005608395 0.002909625695544211 3.029808594074831e-29)
(0.07072390624638766 0.002720123727927558 4.429268020617146e-31)
(0.07133729528099571 0.002956539668029624 2.918338742819639e-29)
(0.07096978480542382 0.002783555104144238 1.88347586183825e-31)
(0.07156239667304788 0.002983248963396668 5.575265948972679e-31)
(0.07121878592568157 0.002830020735068974 -1.443143019238308e-31)
(0.07177105260640328 0.002987030186699857 -5.832870318589653e-31)
(0.07144908480087386 0.002853102908534677 -1.375684882648875e-29)
(0.07196483239072202 0.002970225209685829 2.578360489116032e-29)
(0.07168010902503028 0.002855897060579101 1.317356906119908e-29)
(0.07214550285101867 0.002935032217465145 2.480352766124649e-29)
(0.07188161760849957 0.002837317577724588 -1.556566832378809e-31)
(0.0723098823749074 0.002882938669813576 6.093490702503066e-31)
(0.07208876398059814 0.00280030313496589 6.122133919441667e-31)
(0.07244487380282803 0.002816880883823052 -3.042048146701726e-31)
(0.07226426292744441 0.00275306833049796 -1.158414871266921e-29)
(0.07255031904779306 0.002737933333128713 1.127995549398992e-29)
(0.0724201349182705 0.002691241232874831 -1.112350821375021e-29)
(0.07262737105767653 0.002647518912925184 -1.55671139376373e-29)
(0.07255322673982596 0.002615902950005498 1.103188060213903e-29)
(0.07267836315290958 0.002548775724880221 -2.565177362817102e-29)
(0.07266708369383844 0.002528812099724157 -5.717316921509519e-30)
(0.07270387379326083 0.002443403908898154 -1.008465695192309e-29)
(0.07275500847568812 0.002435418372382298 -7.307682485179763e-31)
(0.07270699742371423 0.002333092656432882 9.453001983065029e-30)
(0.07282568520327377 0.002333853617915123 0)
(0.07268672716437313 0.002220475244132094 4.732626437418135e-30)
(0.07287314166472474 0.002231713090445093 1.053175360216258e-29)
(0.07264800266885212 0.002108623957325471 -4.720381584167624e-30)
(0.07290536402738791 0.002126585312678515 3.816986802468926e-30)
(0.07258932860269809 0.002000037518944953 0)
(0.07291609338102427 0.002026565112901469 -9.177892357848055e-30)
(0.07251435787748808 0.00189522870952465 0)
(0.07291934287435534 0.001927779464764425 -8.96166916767537e-30)
(0.07242653858385437 0.001794849641200765 -4.097749004984114e-30)
(0.07290311499599213 0.001831162529539077 0)
(0.07232719458692335 0.001700972388658608 -4.097750400379682e-30)
(0.0728740667966702 0.001740277593870118 -4.097747990223171e-30)
(0.07221767528274435 0.001614960538259126 0)
(0.07283503279156435 0.00165657088809432 8.422774405941189e-30)
(0.07209833898741322 0.001536705581179682 0)
(0.07278636528909423 0.001579711149570173 0)
(0.0719708078504139 0.001465570709259727 -3.934365251819881e-30)
(0.07272914586673473 0.001509501294763612 4.064876754713874e-30)
(0.07183685753846027 0.001400578836787173 -3.93436623155999e-30)
(0.0726652862161687 0.001444723223462906 3.690112051827728e-33)
(0.07169754469160122 0.001341251608083908 0)
(0.07259630484131033 0.001386663672110326 0)
(0.07155345514603778 0.001288290572437976 0)
(0.07252257270363423 0.001334272168583213 0)
(0.07140581461242079 0.001242661960772643 -1.859107602753344e-30)
(0.07244486687753955 0.001288464758199368 0)
(0.07125476529751094 0.001204178264856976 -9.512489285456686e-31)
(0.07236301694078326 0.001248113526122418 2.167498898332448e-32)
(0.07110251860339281 0.001169204724463406 9.07859041697574e-31)
(0.07228014868718199 0.001213820827819786 2.75714195376849e-30)
(0.07094631802208347 0.001136671978684668 -4.048519141751016e-33)
(0.0721895352591289 0.001180604582982963 0)
(0.07211691317780573 0.001154411184534211 4.539124836268686e-31)
(0.07078564107763458 0.001104045637670172 -2.381914819723801e-27)
(0.06809128273967717 0.0004994747761214715 -2.121463225812829e-29)
(0.06803820871008261 0.0002310128501088965 -2.121462517246487e-29)
(0.06827684549898932 0.0009341967369656111 0)
(0.06812974432182353 0.0006790533361682404 3.816079146969351e-29)
(0.06851064092165493 0.001284748860275987 -3.794405968587614e-29)
(0.06831382837112188 0.00105632504487669 3.756366280553693e-29)
(0.06876282902944522 0.001568083903194918 -3.794408366343333e-29)
(0.06854440393109362 0.001360267472461099 -3.301591652244743e-29)
(0.06902105904263885 0.001802500829574712 1.749043941209257e-29)
(0.06878530416280255 0.001610322923156618 -3.587087818247232e-29)
(0.06928502885504204 0.002000155751928866 1.74904501411489e-29)
(0.06902403966612584 0.001819963175467947 -5.64009588170935e-29)
(0.069549713352641 0.002165929520062235 -1.713678040856715e-29)
(0.06926946677596683 0.00199913264989608 0)
(0.06981134436970489 0.002304909294278248 -1.713679061186633e-29)
(0.06951492667965739 0.002146822504709264 -1.71367838265409e-29)
(0.07007226965393447 0.002422259151643604 1.599611210933253e-29)
(0.06976324504338505 0.002271629379861229 0)
(0.07033234230222218 0.002519667207783527 5.622352322853492e-31)
(0.07000757625062141 0.002374752181289497 -1.521745410529901e-29)
(0.07059250028886438 0.00259803623021775 -3.030740503234513e-29)
(0.07025500714894001 0.002459956986046449 -1.543388829436295e-29)
(0.07085064314292461 0.002657363747664635 -2.919202250764148e-29)
(0.07049903034871556 0.002525403112353167 -1.487351194494476e-29)
(0.07110749307690165 0.002698017551117638 -1.431851192518573e-29)
(0.07074499433762965 0.002573161278398116 -1.431850549592114e-29)
(0.07135818898592941 0.002720288495862875 0)
(0.07098534061296835 0.002602397311195593 0)
(0.07159930229806651 0.002724137510279878 -1.276568038104722e-29)
(0.07122343444240391 0.002614774000342226 0)
(0.071826865363375 0.002708253754823729 -2.496157274834128e-29)
(0.0714494500230748 0.002609744967334766 7.885970006188759e-32)
(0.07203956505351743 0.002676371128628432 -1.219589194345163e-29)
(0.07166914701644515 0.002587594122324626 -1.219588595754816e-29)
(0.07223981167743145 0.002631490991648729 -2.271633558099167e-29)
(0.07187380479781806 0.002552812688555985 2.392641905475324e-29)
(0.07242529482222719 0.00257411258154018 -1.168447199079358e-29)
(0.07207052210406989 0.002505749569464324 -1.124885878835019e-29)
(0.07259336124119051 0.002503893586433296 2.148336853366533e-29)
(0.07225165723817165 0.002447828686781098 -3.116083438232319e-32)
(0.07274393757046327 0.002423738722477714 2.053598904094681e-29)
(0.07242249703754937 0.002378228710572248 2.127748442423749e-29)
(0.0728768193358796 0.002335579932841472 1.008450015216482e-29)
(0.07257464446658568 0.002302530417595561 -4.058806883291765e-31)
(0.07299204308538329 0.002242881228983243 2.363034560539534e-31)
(0.07271548837854912 0.002218624622869205 0)
(0.07309045713587801 0.002147101987486148 9.423536995799779e-30)
(0.07283761550201072 0.002133294753862442 -9.736810816369481e-30)
(0.07317401471031156 0.002050743208023596 9.350167174351372e-33)
(0.07294963113435896 0.00204302438447741 9.187232103826579e-30)
(0.07324549835847059 0.001957480835802354 -1.813955446441619e-29)
(0.07304225473857928 0.001955078937026865 -9.337018382874292e-30)
(0.07330555700891254 0.001866154985116891 -8.961667220705757e-30)
(0.07313106287823018 0.001867719104754287 -1.558405006057883e-32)
(0.07335019191003739 0.001779134373340161 0)
(0.07320195728068031 0.001786526898087608 0)
(0.07338208985039621 0.001697535004095408 8.422769388872168e-30)
(0.07326207487649038 0.001708379781028807 -8.764391702578729e-30)
(0.07340387670232072 0.001622224892399185 8.42277201690237e-30)
(0.07331285466530418 0.001634784879726162 8.378839075605713e-30)
(0.07341643405827844 0.001553084291746649 4.06487434125349e-30)
(0.073355875999909 0.001567155282748485 0)
(0.07342269597336966 0.001488809554341371 7.996715301552315e-30)
(0.07339314989675697 0.001503241339965392 5.50952193766446e-33)
(0.07342448255782162 0.001430409526551777 3.931840831242092e-30)
(0.07342041593399302 0.001442938910220782 3.931838683791878e-30)
(0.07342134259597587 0.001378734390244991 0)
(0.07344316067458236 0.001389806176785618 0)
(0.0734135621563675 0.00133310950322203 0)
(0.07346144016582495 0.001342055342442017 0)
(0.07340202071287724 0.001292628790266393 1.857491138930295e-30)
(0.07347695303570048 0.001300009015477625 0)
(0.07338721474270898 0.001257178287899367 3.706773777745217e-30)
(0.0734869630483161 0.00126292228518004 1.857490448669733e-30)
(0.07336998098437375 0.001225395142415496 1.849282586022147e-30)
(0.07349817077549935 0.001231057235218302 1.879087942764656e-30)
(0.07334852179440292 0.001197187223590846 4.445959948283594e-31)
(0.0735041203396279 0.00120206629476974 1.836481732171849e-30)
(0.07351584878309206 0.001176663206219092 -4.5838589220996e-31)
(0.07332627154107049 0.001169804242535525 1.897363515806752e-31)
(0.06806425609786249 0.0004075403811972469 3.816077841149546e-29)
(0.0680314729033383 0.0001847566213353255 0)
(0.06819256499162908 0.0007848666580183264 7.572445260048555e-29)
(0.06809298685936425 0.0005507436322725741 3.799477235996027e-29)
(0.06836916646272038 0.001109387626762398 3.876348840532334e-29)
(0.06822518667802516 0.0008797217392058886 1.095517930253925e-30)
(0.06857029002707025 0.001380403291971089 -3.467104930000547e-29)
(0.06840188051711471 0.001159141041233498 7.252428512018343e-29)
(0.06878493951894082 0.001607675068450763 -1.066749945862226e-28)
(0.06859774254585617 0.001395669640524855 3.376841578867617e-29)
(0.06900797395912922 0.001800306259182604 -7.08041503280971e-29)
(0.06880057011785749 0.001596924121881025 -2.890191230490212e-30)
(0.06923678667549833 0.001963133312602826 0)
(0.06901120938309187 0.001770314526680335 -3.337850504955636e-29)
(0.06946692564709056 0.002099527460049664 0)
(0.06922672874638625 0.001916677437227627 0)
(0.06969819827016557 0.002213084071118167 -3.121355579310263e-29)
(0.06944617327892447 0.002040349999101977 0)
(0.06992981137391825 0.002306246419389975 -3.121357350749512e-29)
(0.06966582129570913 0.002143131718998453 -9.231417213681231e-31)
(0.0701621205011782 0.0023804969956439 0)
(0.06988717306135644 0.002227639894652466 0)
(0.0703936406331081 0.002436398366628102 0)
(0.07010792786739545 0.002293874477211439 0)
(0.07062379553443671 0.002474436753416182 0)
(0.07032897295398775 0.002342997352591161 0)
(0.07085105675363447 0.002495089257109828 0)
(0.07054712108863903 0.002375126624538295 0)
(0.07107463471474265 0.002499334789590353 1.276958107630634e-29)
(0.07076322933163218 0.00239118617743445 0)
(0.07129260558251675 0.002488043157093956 1.276958760184776e-29)
(0.07097398314105373 0.00239176397731232 1.276958160391674e-29)
(0.07150264315053904 0.002463255908894288 2.392640706751631e-29)
(0.07117989702879526 0.002377546285550525 0)
(0.0717046991749794 0.002426686365079909 3.536472563263503e-29)
(0.07137713116985445 0.002350746338693309 -2.149503871176907e-31)
(0.07189789314561294 0.002379110086103168 4.033201733095955e-31)
(0.07156766124091755 0.002312545294523858 -1.19035239092164e-29)
(0.07208131981012941 0.00232135113104672 -2.090065209950158e-31)
(0.07174866418657064 0.002264391854351859 -1.103499173839523e-29)
(0.0722530426103014 0.002255271146098958 3.356258659628294e-31)
(0.07192144307031087 0.002206496004730954 -2.205057743588311e-29)
(0.07241349368369422 0.002182752227464262 -1.049037445879022e-29)
(0.07208263946003611 0.002142069780400845 1.15253115176619e-31)
(0.07256077752381716 0.002105567319895436 -9.69023008775455e-30)
(0.07223418751984237 0.002071331685668813 0)
(0.07269645053040696 0.002025882829301922 -9.690234088075525e-30)
(0.07237359854946099 0.001997613144208831 -9.690228983825101e-30)
(0.07281820154803267 0.001945524753338496 -2.009301285312666e-31)
(0.07250317464498274 0.001921265388775796 0)
(0.07292748643004643 0.001865162895925199 8.762114173219882e-30)
(0.0726200108742751 0.001845786721720755 9.197814191706216e-30)
(0.07302511690086999 0.001787052258362892 8.963047637884868e-30)
(0.07272789204659953 0.001770081913013469 -3.697249019335328e-31)
(0.07311360619132165 0.001713134749886857 -8.764386744248938e-30)
(0.0728251316445841 0.00169803145828341 0)
(0.07319334529598488 0.001642847679706782 -8.601047360004832e-30)
(0.07291525523523075 0.001628635117069878 -1.137848917801351e-31)
(0.07326532379735831 0.001577395329456835 1.633422931306426e-31)
(0.07299706988947105 0.001562801378331898 5.158396956324848e-31)
(0.07333128416506697 0.001516351600241045 -4.065028506318213e-30)
(0.0730733566524423 0.001501190409176789 -8.568437393733602e-30)
(0.07338949985535213 0.001458554479593283 -4.065029573725757e-30)
(0.07314528516769613 0.001445021721700543 -4.065027456318967e-30)
(0.07343934927054477 0.00140484734123677 0)
(0.07320859626131358 0.001393086173131683 0)
(0.07348356950962751 0.001355912348578329 0)
(0.07326698892162985 0.001345583080845582 0)
(0.07352431852744783 0.001311839986582792 0)
(0.07332245690760068 0.00130130381701207 0)
(0.073561775210896 0.001272732054880459 0)
(0.07337430076007381 0.001262550139024486 3.905471859950908e-30)
(0.07359780164411403 0.001238029155605878 1.787389304120565e-32)
(0.07342263444292318 0.001226893859517563 3.836797520016948e-30)
(0.07363314706441286 0.001207703811166154 1.854354708824618e-30)
(0.07347034732599912 0.001195709952827684 -5.616360849782664e-30)
(0.0736674902696182 0.001181642983164679 9.334996922602087e-31)
(0.07351659145005321 0.001167721347377769 1.86565943390968e-30)
(0.07356051206232235 0.001145612429321331 9.207996187767977e-31)
(0.07369853949469971 0.001156926140226067 -3.848799172440043e-31)
(0.06804888738246427 0.0003354223454451097 -1.426500901032662e-30)
(0.06802753944956988 0.0001538691511576566 0)