/*--------------------------------*- C++ -*----------------------------------*\
| =========                 |                                                 |
| \\      /  F ield         | OpenFOAM: The Open Source CFD Toolbox           |
|  \\    /   O peration     | Version:  2206                                  |
|   \\  /    A nd           | Website:  www.openfoam.com                      |
|    \\/     M anipulation  |                                                 |
\*---------------------------------------------------------------------------*/
FoamFile
{
    version     2.0;
    format      ascii;
    arch        "LSB;label=32;scalar=64";
    class       surfaceVectorField;
    location    "2";
    object      Uf_0;
}
// * * * * * * * * * * * * * * * * * * * * * * * * * * * * * * * * * * * * * //

dimensions      [0 1 -1 0 0 0 0];

internalField   nonuniform List<vector> 
35915
(
(0.06664044708546374 0.001416091351376725 0)
(0.06730281672853576 0.00137755429186842 -1.230635575402714e-29)
(0.06451924340572356 0.001894128819223603 0)
(0.06713683727248392 0.002121213478544656 0)
(0.06225151407947915 0.002013268069074232 0)
(0.06646927196580747 0.002267747278336208 -1.093594606854125e-29)
(0.05990147855855549 0.002074781447446944 -5.088087639226426e-30)
(0.06531357980243939 0.002350060879187892 -1.03816673264958e-29)
(0.05746738501422968 0.002109493303883322 -5.088091001037261e-30)
(0.06403481950011154 0.002434126463264774 2.014903942754939e-31)
(0.05498681044500837 0.002112006030635639 -4.667584160137689e-30)
(0.06271854033747935 0.00248061490682322 0)
(0.05248924203328591 0.002086295909069815 -4.667587169572158e-30)
(0.06134841492605245 0.002497615809176348 -8.384626790166878e-31)
(0.04999853444690809 0.002040387647335429 0)
(0.05991971242559737 0.002490761538004205 0)
(0.04753023347364415 0.001980041298073681 0)
(0.05844556333550262 0.002468360967602765 0)
(0.04509533742229791 0.001910283766070326 0)
(0.05694405135521446 0.002434961586955164 0)
(0.04269971550885505 0.001838091577756936 0)
(0.05542642035117344 0.00239569254158209 0)
(0.0403426003534858 0.001743894424194861 0)
(0.0538955172608331 0.002357190546981011 0)
(0.03803681173266932 0.001595209306465915 0)
(0.05237240154275505 0.002305868149923695 -7.213206621652154e-30)
(0.03581296215288487 0.001417755901654337 0)
(0.05082173649587997 0.002223931987633585 0)
(0.03369331911903059 0.001248216560857481 0)
(0.04932110780857925 0.002119727225833211 0)
(0.03169000642854696 0.001088565464215436 0)
(0.04785075647603335 0.002003397695086546 6.250981658861882e-30)
(0.02981219458808528 0.0009375821821191869 0)
(0.04641506955729943 0.001877896713083084 -5.963921406172884e-30)
(0.02806790336090466 0.0007931639776178997 0)
(0.04502941762136286 0.001744375035290399 5.695520698909966e-30)
(0.02646335375944272 0.0006560420119525735 0)
(0.04370372667494471 0.001604631449820451 0)
(0.02500380570307183 0.0005290270285339298 2.479625049023352e-30)
(0.04244411257302773 0.00145962706687851 -5.208614255051462e-30)
(0.0236919667198243 0.000414057697451813 2.479626319381699e-30)
(0.04125157651527447 0.001311914358689413 4.466055599453776e-30)
(0.02252227884840246 0.0003129902254292612 0)
(0.04013420764598051 0.001169759157204056 0)
(0.02148634402546737 0.0002259962581112663 0)
(0.03909099078307731 0.001036001731894886 0)
(0.02057598012249095 0.0001522618464870533 0)
(0.03812392905958005 0.0009104262093469789 0)
(0.01978230621646052 9.07455482218602e-05 0)
(0.03722871270433973 0.0007937314743436778 -4.352196049950791e-30)
(0.01909480401864195 4.063282312695523e-05 0)
(0.03640452437715257 0.0006875550342619491 0)
(0.01850254733557239 6.207592786063519e-07 -2.026360508870035e-30)
(0.03564375455790327 0.0005923048782086481 4.154207966394099e-30)
(0.01799390279021652 -3.100962650717448e-05 -1.027809842925579e-30)
(0.03494684003055348 0.0005086882989125851 3.907688764967281e-30)
(0.01755817590088181 -5.530326204174364e-05 1.984880452150008e-30)
(0.03430329274713495 0.0004357664172709037 2.113800602821204e-30)
(0.01718476018175226 -7.289394725613206e-05 1.057856174966052e-32)
(0.0337149165248069 0.0003734513018010221 2.099966563343843e-30)
(0.01686430450808746 -8.45333519686253e-05 -1.942037161859706e-30)
(0.03316812213113857 0.0003204875752793255 -1.273671750985791e-31)
(0.01658732265596608 -9.097011571105659e-05 -8.93680987719227e-33)
(0.03266947953254077 0.0002770104035966586 -1.314265334943385e-31)
(0.01634585936244846 -9.326428225792741e-05 1.906070975329319e-30)
(0.03219961398615574 0.0002414887765901675 1.301392368392197e-31)
(0.01613252257314619 -9.234231878963651e-05 9.48721022598581e-31)
(0.03177162757215304 0.0002133595066294495 1.280901791631343e-31)
(0.01594179167068138 -8.908555640936542e-05 0)
(0.03135910943996496 0.0001907510695710879 0)
(0.01576849108249634 -8.390118603449789e-05 0)
(0.03098680996764654 0.0001733184440701394 0)
(0.01560830955182868 -7.771158747302348e-05 0)
(0.03061456551972824 0.0001601972650960772 0)
(0.01545824377718334 -6.772271349278893e-05 0)
(0.03028925873705934 0.0001500795462317508 0)
(0.01531032237776752 -5.306154413249447e-05 1.111472623461812e-31)
(0.0299304695735396 0.0001479336249039009 0)
(0.02968087382373582 0.0001511632355075597 2.318891846012504e-31)
(0.0151591691497469 -3.764324754666688e-05 4.766805945962335e-32)
(0.0686010630882634 0.001758492832640656 -1.230635986559565e-29)
(0.06815125266444712 0.000794492042950225 -8.310511201705298e-30)
(0.0691067454178141 0.002348071999381899 -1.093594203000132e-29)
(0.06862553773142493 0.001615532191585544 2.214145814890898e-29)
(0.06933142461791424 0.002568512848696699 -2.1317612726598e-29)
(0.06915886798899713 0.002043072275540174 1.881197314543456e-29)
(0.06937303798752126 0.002695629360052089 -5.314878219206267e-30)
(0.06945032109800414 0.002308455707262994 -4.206609261785189e-31)
(0.06929504400305364 0.00280704374766802 5.066795315750799e-30)
(0.06958870046079248 0.002512132656693935 5.066793370295058e-30)
(0.0690908941714543 0.002893707201559421 4.63915022809956e-30)
(0.0696677351122283 0.002684781500971086 0)
(0.068774445683929 0.002949129254155645 4.639153170550702e-30)
(0.06965635981739558 0.002814085823644946 -1.33832884951145e-29)
(0.06835747284699713 0.002974819821923394 0)
(0.06960600839316387 0.002907761000404316 0)
(0.06785536501791914 0.002982467217979837 0)
(0.06946593862049949 0.002970500473387496 0)
(0.06727504745165712 0.002979565304910301 0)
(0.06925972922877767 0.003015315931971315 0)
(0.0666230042160882 0.002969398158168377 0)
(0.06900005609945689 0.003047777685378109 0)
(0.06591599000974591 0.002954738208549743 -7.213203092092831e-30)
(0.06868938251750277 0.003064251530196052 -1.492484837981242e-29)
(0.0651563785477752 0.002933860719257967 -7.213207305159642e-30)
(0.06833521678519849 0.003065531213391417 1.555623143732709e-29)
(0.06434602282673049 0.002896142549710096 0)
(0.06793757576521235 0.003034344141571747 0)
(0.06348251909882445 0.00283373350361504 6.250978328129662e-30)
(0.06749666751544312 0.002983292184946826 -1.314194948899452e-29)
(0.06257500245319972 0.002747038307192103 2.870636639050306e-31)
(0.06701075588190999 0.002910980028748883 1.432012540349388e-29)
(0.06163321213182146 0.002638487985798378 -2.684039000060402e-31)
(0.06648419132947164 0.002819756754809396 -2.20999123091339e-30)
(0.06066706387215284 0.002511860594923579 5.695520543179033e-30)
(0.06592449027639974 0.002710596542837306 -9.131716444155612e-30)
(0.05968456390056256 0.002369140849577523 -5.208611173155465e-30)
(0.065338507091771 0.002587207691625338 0)
(0.0586916266583794 0.002210638456821849 -2.660584892793696e-30)
(0.06473305915312669 0.002452643125736417 -7.653383267981386e-30)
(0.05769443483055311 0.002042871045570343 2.548030215283936e-30)
(0.06410549545155872 0.002309187010648928 -5.47598709199365e-30)
(0.05670287906450219 0.001873833903208726 0)
(0.06346475926038514 0.00216139704358687 -4.910010514470723e-30)
(0.05572742494143612 0.001706559614713935 0)
(0.0628151913050488 0.002011538490700723 0)
(0.05477489306984278 0.001542654824299692 -4.352193186054824e-30)
(0.06216461866648124 0.001863040564296327 -4.586463550608647e-30)
(0.0538483704630836 0.001385974286666422 -4.352195091431949e-30)
(0.0615145268378287 0.001720335880913927 3.277446414771623e-30)
(0.05295106468629088 0.0012398216897598 4.154205144285999e-30)
(0.06087105282734232 0.001584941396558438 0)
(0.05208561185237139 0.00110557913367081 1.02319659935466e-29)
(0.06023416257884997 0.001457836578621429 4.973963633990901e-30)
(0.0512540402358273 0.0009837031090550129 7.099225724073472e-30)
(0.05961110843452611 0.001340336599645405 2.493107759296488e-30)
(0.05045750372053086 0.000874548936310331 2.027275508281043e-30)
(0.05899900551651337 0.001232377019749484 -8.440533511372269e-31)
(0.0496963362802453 0.0007779105006848997 1.969081023422925e-30)
(0.05840667215840991 0.001134689882307895 -9.203057459496887e-31)
(0.04897132235085322 0.0006936768210977103 1.917370401940155e-30)
(0.05782480634637052 0.001045569333193997 4.921320307481929e-30)
(0.04828078277220813 0.0006212815387429077 8.651511707165458e-33)
(0.05726717927708364 0.0009676142928747882 9.540999767148059e-31)
(0.04762384133229554 0.0005597868204243247 -1.882545770026213e-30)
(0.05671892818957553 0.0008984907757651707 -9.454487203937995e-31)
(0.04699817001025319 0.0005077779993534448 -9.370966475456687e-31)
(0.05619921585287897 0.000839087520829779 -9.37096032220716e-31)
(0.04640262403874547 0.0004640474961826166 0)
(0.05568351854825093 0.0007863496974978108 0)
(0.04583395158016037 0.0004279126567177906 0)
(0.05520172142514638 0.0007420395137025934 -1.855679229334512e-30)
(0.04529082460649315 0.0003981686271677496 0)
(0.05471281073802765 0.0007033686963397524 -1.832033073065758e-30)
(0.0447693455247452 0.0003752441341468438 0)
(0.05427235159095867 0.0006715990193935197 -9.044463208998746e-31)
(0.04427294779039942 0.0003607668876073519 1.103250519533698e-31)
(0.05378791113871565 0.0006443673640666405 8.908483975730066e-31)
(0.05343130999321587 0.0006265331077411906 -1.498613797070051e-31)
(0.04379760745246881 0.0003541386193022564 4.725725005900165e-32)
(0.06835126215638486 0.0008254706455490537 3.445072479495841e-29)
(0.0680924826214398 0.0004612291156378869 3.349030196195184e-29)
(0.06881333679945113 0.001409702758922549 5.419017503308835e-29)
(0.06838217479263767 0.001153454749213925 -2.831748462315928e-29)
(0.06924977060324951 0.001816863947337838 4.243091555657622e-29)
(0.06880287909054895 0.001606634388750772 4.293356474962405e-30)
(0.06962531410524769 0.002124923305171009 1.038219122265169e-29)
(0.06921064737431848 0.001932908181980639 2.991946559762939e-29)
(0.06995454237597347 0.002373527364902036 0)
(0.06953616442195067 0.002182900751267271 0)
(0.07023917366504706 0.002574257917745201 -1.802243249205039e-29)
(0.06984645697664651 0.002400147345531913 0)
(0.07048974940466632 0.002726840125718097 -1.802244373845346e-29)
(0.07011915076010405 0.002563508211680576 1.103203160612847e-30)
(0.07070458776104115 0.002851667966358657 0)
(0.07039752208331479 0.002692922140567315 0)
(0.07086762298501656 0.002951670272974584 0)
(0.07063095430238171 0.002807466647325879 0)
(0.0709854171365145 0.003031181746323804 0)
(0.07082882846562621 0.002897525250572832 0)
(0.07106436606032494 0.003091642831185138 -1.492484143650541e-29)
(0.07100898114483675 0.002968834471487225 1.539513719274971e-29)
(0.07110963484206928 0.00313490174542848 6.594040696981261e-30)
(0.07115713413295074 0.003018990751462028 -1.289033347939283e-30)
(0.07112004538065411 0.003149657493126449 2.151890312335367e-29)
(0.07129002687505406 0.003055131195709715 8.694183382670333e-30)
(0.07109263685693515 0.003133059456186292 -1.314194285125051e-29)
(0.07138990519285392 0.003061765879237341 0)
(0.07102626440684508 0.003094291915897776 -6.792199500860191e-30)
(0.07147322072069312 0.003049680760465407 -1.350245848359618e-29)
(0.07091927569410388 0.003032282506078823 1.229121627785241e-29)
(0.0715157052622897 0.003017987888192151 -7.043301263905881e-30)
(0.07077437645379901 0.002948913815620765 -1.128583070374562e-29)
(0.07154787314039883 0.002964678273224909 1.809852596780945e-29)
(0.07059694616682036 0.002846313450081591 -1.722730507402513e-29)
(0.07154017643772219 0.002888052057921227 -3.971804426602655e-30)
(0.0703875064767448 0.002730027882624703 -1.292889096167797e-31)
(0.07150121246010231 0.002796675517398271 0)
(0.07014723844653545 0.002605439963461234 -1.020024630263353e-29)
(0.07143450449272569 0.002692942111804288 1.685521241332128e-29)
(0.06987666853785739 0.002475527392527292 -1.498096980844304e-29)
(0.07133921703571347 0.002579790615276577 6.165012721548811e-30)
(0.06957718598758082 0.002341128256760173 -4.910009904190964e-30)
(0.07121519917547017 0.002460915871189709 1.0632295820591e-29)
(0.0692517974261519 0.002204740181560696 -4.586460710700448e-30)
(0.07106592460303002 0.002336965668521733 -9.712063876326765e-30)
(0.068903444709559 0.002072092328829758 4.194466303839712e-30)
(0.07089291678047893 0.002211433950966558 9.774318161259475e-30)
(0.06853596798732169 0.001945204383560071 8.780932782696245e-30)
(0.07069859567319658 0.002087854981920398 4.16172291882916e-30)
(0.06815306522753194 0.001823287777155246 1.163702301627431e-31)
(0.07048590273376928 0.001967887869967265 8.91059626659198e-30)
(0.06775813913209167 0.001707139830357118 -3.9346199633646e-30)
(0.07025749921369225 0.001852807345048817 4.779961713072597e-30)
(0.06735517844031121 0.001597982977371596 -6.044111393122824e-30)
(0.0700165449302047 0.001743342485833094 -4.050989241952254e-30)
(0.06694666828182333 0.001496670136204659 -3.958593401579493e-30)
(0.06976593933491694 0.001640932526740626 -6.17344933174065e-30)
(0.06653435359910714 0.00140215318161108 1.992574537538125e-30)
(0.06950877024439964 0.001547049710647104 -6.069186740845365e-30)
(0.06611959690587045 0.00131513381216391 3.958049437084945e-30)
(0.06924358973787875 0.00146037063828933 3.951183248955713e-31)
(0.06570529069135925 0.001236858282560228 0)
(0.06897498104895802 0.001381964161620469 0)
(0.06529305867358416 0.001167414007620248 0)
(0.06870144520975827 0.001310765147964167 3.91081961893941e-30)
(0.06488484500777392 0.001106027206446351 0)
(0.06842928623346937 0.001247341868264767 3.854199685617708e-30)
(0.06448106014250954 0.00105208116775681 -1.855678008434884e-30)
(0.06815310777552096 0.001190173306935105 0)
(0.06408232056358286 0.001004510299040315 -3.687710212041299e-30)
(0.06788247797483257 0.001140815613784311 -1.877993639721631e-31)
(0.06368866650758939 0.0009633414563972332 -2.736477886877551e-30)
(0.06760459850188251 0.001097056833980564 -1.977899751174024e-31)
(0.06329872793307161 0.0009264071303476187 -1.359801020701658e-32)
(0.06734265326759253 0.001061569090715536 -8.584190370111383e-32)
(0.0629187221837183 0.0008942367614597155 6.723443769780245e-31)
(0.06705257717036293 0.001024401515991478 1.01053333958104e-30)
(0.06683377958015228 0.0009937352659479832 2.233018603979475e-31)
(0.06255154297980418 0.0008628921503594653 -9.347970846134979e-32)
(0.06817493781391508 0.0007105346781515474 -2.183754141055431e-29)
(0.06805469894411879 0.0003042908248809899 2.961733031356173e-30)
(0.06846379142845238 0.001262850690299457 -6.413581604035342e-29)
(0.06821089633036294 0.0008645990094563687 -2.579220253771851e-29)
(0.06878032946969617 0.001654074572621052 -1.579950423717457e-30)
(0.06848060751749323 0.001290092562289743 -2.111721395026158e-29)
(0.0691008118615374 0.001944178240665873 1.953728352461556e-29)
(0.06878610298344719 0.001612420761837307 4.054877265079918e-29)
(0.06941519129683819 0.002176163826516282 0)
(0.06908043845578253 0.001868515539806236 0)
(0.06973143491187103 0.002368593151284819 1.802798245531193e-29)
(0.06936428917711936 0.002083897170138998 -3.575772223448472e-29)
(0.07003114912412159 0.002522975074702069 1.802799352486355e-29)
(0.06965077183095805 0.002263787140196153 1.802798645719105e-29)
(0.07031563184626118 0.002649059352976861 0)
(0.06992749323304338 0.002408432233387172 0)
(0.07059054778574497 0.002755330397590283 0)
(0.07020174221918986 0.002532543423060496 1.629173071229595e-29)
(0.07085324182000136 0.002842487652601757 1.53951303676107e-29)
(0.07046205843943071 0.002634824028605326 -1.576934244839858e-29)
(0.07110194654366113 0.002909627290917829 3.032003306002124e-29)
(0.07072398361921317 0.002720122863693451 4.429303785588323e-31)
(0.0713373704863771 0.00295654408982075 6.030619952543055e-31)
(0.07096986205570362 0.002783560337018162 1.492489561622582e-29)
(0.07156246750485552 0.00298325340906893 -1.432184832731265e-29)
(0.07121885985137197 0.002830028208381778 -1.432184176169731e-29)
(0.07177111826092479 0.002987032593555545 -4.845364396259256e-32)
(0.07144915426294464 0.002853109896098448 0)
(0.07196489352819452 0.002970224411605473 -1.262243871744593e-29)
(0.07168017261453558 0.00285590111935618 1.325314436775689e-29)
(0.07214556065934627 0.002935027734433496 -4.169343513983115e-31)
(0.07188167721108543 0.002837317245317221 1.558745432313362e-31)
(0.07230993874394211 0.00288293110465669 2.370417115592455e-29)
(0.07208882059390921 0.002800297760231957 -1.165182510784764e-29)
(0.07244493119243473 0.00281687065338476 1.154711332454865e-29)
(0.07226431907292902 0.00275305871732927 -2.741618766175232e-31)
(0.07255038010276686 0.00273792115869714 1.612024275129554e-29)
(0.07242019347591021 0.00269122737855787 0)
(0.0726274370096013 0.002647506720020253 3.162934762346935e-29)
(0.07255328977070848 0.002615887675507123 1.677649638649251e-29)
(0.07267843412893012 0.002548765246129169 3.045832796419008e-29)
(0.07266715203958105 0.002528797665900883 -4.917698017876932e-30)
(0.0727039494179242 0.002443396720149731 5.23717228248536e-30)
(0.07275508274457437 0.00243540645412172 5.634582685702427e-30)
(0.07270707612482388 0.002333089989748378 4.279765829778682e-30)
(0.07282576410623814 0.002333846459988875 -8.319967819935193e-31)
(0.07268680743540193 0.002220477767639645 9.54398960971636e-30)
(0.07287322382473939 0.002231711786057785 -4.224678868953397e-30)
(0.07264808206794736 0.002108631722613582 4.462744195538363e-30)
(0.07290544695882856 0.002126590942191466 -4.447844084114204e-30)
(0.07258940440339987 0.002000049857427745 1.3379714343827e-29)
(0.07291617379254718 0.002026577568237371 3.52062036564483e-31)
(0.07251442781179418 0.001895244221201652 4.469121662092665e-30)
(0.0729194189035005 0.001927797233596781 -1.299117325827707e-29)
(0.07242660059315088 0.001794866961139401 -4.180327600471837e-30)
(0.07290318154677701 0.001831183996980067 0)
(0.07232724677814004 0.001700990509911074 -8.284040713349377e-30)
(0.07287412278324165 0.001740301457840657 -9.018302229925247e-32)
(0.07221771637932219 0.00161497837112501 -8.05197647423658e-30)
(0.07283507700893121 0.001656595864059262 -4.687283139084832e-32)
(0.07209836875148407 0.001536722144654228 -3.948264646352467e-30)
(0.07278639736933175 0.001579734514001589 -3.948262329131687e-30)
(0.07197082686560884 0.001465585220659828 3.910817164164752e-30)
(0.07272916636546882 0.001509522564162256 0)
(0.07183686742476035 0.001400590897087522 7.765015416110805e-30)
(0.07266529638388902 0.001444741141677801 -3.980405535539038e-30)
(0.07169754765137883 0.001341261591670847 3.854198139875946e-30)
(0.07259630670124341 0.001386678013953049 -2.314853220650357e-32)
(0.07155345394773506 0.00128829913328942 1.850055191425723e-30)
(0.07252256859115352 0.001334283016939516 0)
(0.0714058111302571 0.001242669540658216 3.676352936630791e-30)
(0.07244485909561547 0.00128847383488436 -1.940139637859326e-30)
(0.07125476142571384 0.001204185704627384 2.727824540535219e-30)
(0.07236300715132581 0.001248121178260966 3.691949583908406e-30)
(0.07110251468596604 0.001169213129325404 9.101379625655041e-31)
(0.07228013764049269 0.001213829414724527 9.015264666935688e-31)
(0.07094631376791553 0.001136681977090918 4.504160398213114e-31)
(0.0721895233344786 0.001180614973570204 -2.6912910818148e-30)
(0.07211689869883062 0.001154423638239353 -1.290593216935826e-32)
(0.07078563564229833 0.001104057045464787 2.364229680983039e-27)
(0.06809128407385512 0.000499461576799422 -3.078440486554218e-31)
(0.06803820925966049 0.0002310065091847296 -2.118238299285016e-29)
(0.06827685092156302 0.0009341693269334975 2.087455960484643e-29)
(0.06812974714806168 0.0006790308499039832 5.897143601438586e-29)
(0.06851065357719284 0.001284709877128129 1.833754317290404e-29)
(0.06831383654629058 0.001056287278293748 0)
(0.06876285172200303 0.001568037938518053 1.83375547579844e-29)
(0.06854442115985651 0.001360218824782832 -5.996249367172051e-29)
(0.06902109354139493 0.001802452905516307 -3.575770858807889e-29)
(0.06878533292230066 0.001610268987890804 0)
(0.06928507543124829 0.002000110851958504 -3.575773051780801e-29)
(0.06902408072981367 0.001819909655388629 3.094552510883963e-30)
(0.06954977116572929 0.002165891907476201 0)
(0.06926951987640612 0.001999084983552636 0)
(0.06981141145496027 0.002304881623026299 1.629172399019379e-29)
(0.06951499039059213 0.002146784866740832 0)
(0.07007234326885771 0.002422242521260648 5.223977743463859e-31)
(0.06976331652741889 0.002271603911587667 -9.9454376589194e-31)
(0.07033241964722174 0.002519661100016259 -3.11692864235677e-29)
(0.07000765301204867 0.002374739417120983 7.888637980187079e-31)
(0.07059257834002493 0.002598038688222803 -1.539995030365646e-29)
(0.07025508564441524 0.002459955415061236 -4.559641929571796e-29)
(0.07085071958973553 0.002657371723054123 0)
(0.07049910818538718 0.002525409949206991 0)
(0.07110756555880154 0.002698027476133909 0)
(0.07074506900426758 0.002573172716483514 0)
(0.07135825633403471 0.002720296985522461 1.31896846482807e-29)
(0.07098541072105306 0.00260240943255933 0)
(0.0715993645784372 0.002724141916422814 2.591954547738294e-29)
(0.07122349936230039 0.00261478312695892 -1.326116460895398e-29)
(0.07182692376110461 0.002708252533465007 -1.169362735951713e-29)
(0.07144951062539429 0.002609748517671964 -7.88474909756932e-32)
(0.07203962158024893 0.002676363895849046 -3.624476347259522e-29)
(0.07166920493132842 0.002587590618668243 -1.206304493629674e-29)
(0.07223986907266697 0.002631477968962494 -1.182126908908822e-29)
(0.07187386239726053 0.002552802206887763 2.388932104514195e-29)
(0.07242535533637921 0.002574095666062364 1.808018611025536e-31)
(0.07207058182516625 0.00250573259614631 0)
(0.07259342677981159 0.002503875950850408 -2.08476610696305e-29)
(0.07225172125956636 0.002447808387608608 -1.084426977293172e-29)
(0.07274400925653904 0.002423722589231383 -3.107370084143044e-29)
(0.0724225666774813 0.002378208128990943 4.802636543145966e-31)
(0.07287689714222463 0.002335567867487419 -3.338357945736004e-31)
(0.07257472089444664 0.002302512378682316 4.060817823140222e-31)
(0.07299212553705861 0.002242875369009808 -9.347537025680931e-30)
(0.07271557018489229 0.002218612819197455 -4.264934466824366e-31)
(0.07309054212625328 0.002147103754303557 -1.905894609844401e-29)
(0.07283770145279893 0.00213329091033376 -9.126308156713418e-30)
(0.0731740989984718 0.002050753498062935 -8.908486409868624e-30)
(0.07294971792697789 0.002043030715779053 0)
(0.07324557891607696 0.001957498886053966 -2.652927223796426e-29)
(0.0730423391296386 0.001955095122482615 -8.908484934978293e-30)
(0.0733056296103355 0.001866179294112715 -1.762078890358688e-29)
(0.07313114199102745 0.001867744829352155 -8.717257696227226e-30)
(0.07335025311301459 0.001779162824049055 4.178597919612317e-30)
(0.07320202605859281 0.001786559763458521 0)
(0.07338213802395324 0.00169756570460334 8.280377848635519e-30)
(0.07326213104102092 0.001708416673689676 4.178596975905154e-30)
(0.07340391187989945 0.001622255225101413 4.101779818238345e-30)
(0.07331289737969802 0.001634822850592801 -4.440279034351047e-30)
(0.0734164570571461 0.001553112205655037 0)
(0.07335590432788938 0.001567190824362284 -8.377051413984214e-30)
(0.07342270769548204 0.001488834116497138 -7.884999687982602e-30)
(0.07339316387348932 0.001503273884069302 0)
(0.07342448461144988 0.001430429619262531 -1.173650451446118e-29)
(0.07342041998998133 0.00144296649429318 4.380185953669612e-32)
(0.07342133733243079 0.001378749577702123 -3.851503749140406e-30)
(0.07344315505972934 0.001389827832466135 -3.8515016738739e-30)
(0.07341355169775744 0.001333120983595679 -3.790191940926091e-30)
(0.07346142766398413 0.001342071381727633 0)
(0.07340200668079105 0.001292638056880141 -1.92454072375968e-30)
(0.07347693564280022 0.001300021660637164 -1.206721712886932e-31)
(0.07338719802005708 0.001257187241024594 1.865652108363218e-30)
(0.07348694244657182 0.00126293262196204 3.756536058044912e-32)
(0.07336996167427128 0.001225405912197005 -2.70338057240115e-30)
(0.07349814802944907 0.001231068403132051 1.854271173379842e-30)
(0.07334850001119073 0.001197200206330499 -3.14472722762832e-30)
(0.07350409672005342 0.001202079149611768 -8.829142499610204e-31)
(0.07351582056827943 0.001176679101330818 -4.413462580590665e-31)
(0.07332624630904679 0.001169819925445343 -1.883495692075797e-31)
(0.06806425749901945 0.0004075245819876294 3.809687050140225e-29)
(0.06803147345211145 0.0001847488751691212 0)
(0.06819257068071403 0.0007848337394918444 3.809689498157451e-29)
(0.06809298978779224 0.0005507168545442018 3.793129849643175e-29)
(0.06836917958265941 0.001109340181718062 -7.457167490048742e-29)
(0.06822519523370629 0.0008796765386181795 0)
(0.06857031334328631 0.001380346631589096 -7.457172134828072e-29)
(0.06840189828779684 0.001159082194461939 -3.898064200686364e-29)
(0.06878497483469595 0.001607615468158382 3.576497718663004e-29)
(0.0685977720114283 0.001395603703205494 0)
(0.06900802156356882 0.00180024993405276 3.576499878536596e-29)
(0.06880061225419966 0.001596858310898222 6.988086813788462e-29)
(0.06923684558465731 0.001963085586748701 0)
(0.06901126376880586 0.001770255553700067 0)
(0.06946699383762812 0.002099491958814766 -1.629573144204191e-29)
(0.06922679377097107 0.001916630516257996 0)
(0.0696982728816221 0.002213062378024986 -5.22341904236961e-31)
(0.06944624620219425 0.002040318108587013 1.533082218287644e-29)
(0.06992988937061846 0.002306238118326109 -1.442305480434106e-29)
(0.06966589913070891 0.00214311556855183 1.577340142210252e-29)
(0.07016219885616215 0.002380499839325167 -3.01964795472137e-29)
(0.06988725249505742 0.002227637964632595 -7.791835738724232e-31)
(0.07039371685946783 0.002436408751693231 0)
(0.07010800616967669 0.002293883442191588 0)
(0.07062386787854973 0.00247445042211169 0)
(0.0703290478949077 0.002343012672648026 0)
(0.07085112449802163 0.002495102012848119 -2.645083763526731e-29)
(0.0705471915801401 0.002375143345530877 0)
(0.07107469808687296 0.002499343060766698 -3.91845949542755e-29)
(0.07076329520343395 0.002391199676344097 -4.530378157943143e-32)
(0.071292665770622 0.002488044421444852 -4.659854444323831e-31)
(0.0709740452690335 0.002391770711786688 1.287614103678367e-29)
(0.07150270212348395 0.002463249075918329 4.794557480552029e-29)
(0.07117995720395812 0.002377543997188108 1.226776487153383e-29)
(0.0717047593332618 0.002426671834178631 3.567782154001302e-29)
(0.07137719165732413 0.002350734671810822 -1.240898186434036e-29)
(0.0718979563173843 0.002379089681888501 -1.099702586640324e-29)
(0.07156772440188992 0.002312525307826836 0)
(0.07208138804353523 0.002321327894174873 1.040900856851769e-29)
(0.07174873179537253 0.002264366493618304 -1.099702546462277e-29)
(0.07225311713820749 0.002255248687767343 3.185735270939317e-29)
(0.07192151677841163 0.002206469128698539 3.237525268843374e-29)
(0.07241357423171767 0.002182734429886955 3.134242930394446e-31)
(0.07208271957908276 0.002142045721444144 -2.133546614322111e-29)
(0.07256086302111994 0.002105557481156174 -4.881492217600883e-31)
(0.07223427307903818 0.002071314932841563 7.436818919223182e-32)
(0.07269653842630013 0.002025883490951322 9.649742827524394e-30)
(0.07237368793129553 0.001997606902333124 1.967432942028308e-29)
(0.07281828874615419 0.00194553699419388 0)
(0.0725032643633062 0.001921272418227299 0)
(0.07292756939350518 0.001865186576062987 8.920451485056141e-30)
(0.07262009821968776 0.001845807142387091 0)
(0.07302519208707568 0.001787085964401946 8.920454728523747e-30)
(0.07272797249649096 0.001770115415587303 8.920449971813228e-30)
(0.07311367067841702 0.001713175737980643 0)
(0.07282520286355808 0.001698075023660368 0)
(0.07319339602225643 0.001642892244674188 -8.542051742087914e-30)
(0.07291531327986538 0.001628685771603055 0)
(0.07326535946743719 0.001577439336019135 -1.691910105202788e-29)
(0.07299711385648236 0.00156285440650316 -1.979441255667778e-31)
(0.07333130406128913 0.001516392242935843 -8.37704908162687e-30)
(0.07307338499589849 0.001501241725772232 -2.710693797785187e-31)
(0.07338950630737334 0.001458589897668999 8.018307850461158e-30)
(0.07314529738381512 0.00144506771095529 0)
(0.07343934524033871 0.001404876338683515 8.018309768615073e-30)
(0.07320859727229066 0.001393124240146349 1.216011462594356e-29)
(0.0734835567478459 0.001355934833725681 0)
(0.07326697843942241 0.001345613468609512 8.050386821532634e-30)
(0.07352429925026943 0.001311857117508382 3.790007502135291e-30)
(0.07332243881879039 0.001301326371908935 0)
(0.0735617515338387 0.001272745665110189 1.924486577217752e-30)
(0.0733742767940596 0.001262567183932131 3.790006283218944e-30)
(0.07359777519412374 0.001238041560892994 -1.125157983673575e-32)
(0.07342260756486629 0.001226906968815725 1.94615270109677e-30)
(0.07363311938679737 0.001207717207979914 3.661822778847944e-30)
(0.07347031819516307 0.00119572234685277 3.746012226138008e-30)
(0.07366746093170189 0.001181658954663988 1.80755249058569e-30)
(0.07351656246242146 0.001167735862950357 -3.180327803582755e-32)
(0.07356047902923123 0.00114563064095847 -9.030658862907579e-31)
(0.07369850783740969 0.001156945666367264 0)
(0.06804888877533383 0.0003354035870936756 -1.426067070943291e-30)
(0.06802754000058261 0.0001538600093060532 0)
(0.06813915786072368 0.0006528949358307757 -1.42606797553067e-30)
(0.06807132029716784 0.0004604472046818237 -7.286766038123822e-29)
(0.06827301737344847 0.0009362534060238613 3.669054824205913e-29)