/*--------------------------------*- C++ -*----------------------------------*\
| =========                 |                                                 |
| \\      /  F ield         | OpenFOAM: The Open Source CFD Toolbox           |
|  \\    /   O peration     | Version:  2206                                  |
|   \\  /    A nd           | Website:  www.openfoam.com                      |
|    \\/     M anipulation  |                                                 |
\*---------------------------------------------------------------------------*/
FoamFile
{
    version     2.0;
    format      ascii;
    arch        "LSB;label=32;scalar=64";
    class       volScalarField::Internal;
    location    "2";
    object      V0;
}
// * * * * * * * * * * * * * * * * * * * * * * * * * * * * * * * * * * * * * //

dimensions      [0 3 0 0 0 0 0];

value           nonuniform List<scalar> 
18114
(
3.941646410530605e-07
3.941654568133474e-07
3.941662624849938e-07
3.941670582700099e-07
3.941678443511501e-07
3.941686208813513e-07
3.941693879808149e-07
3.941701457299399e-07
3.941708941619505e-07
3.941716332557375e-07
3.941723629290741e-07
3.941730830321799e-07
3.941737933418893e-07
3.9417449355631e-07
3.941751832901658e-07
3.941758620708597e-07
3.941765293353026e-07
3.941771844276774e-07
3.941778265981518e-07
3.941784550026917e-07
3.941790687040825e-07
3.941796666742331e-07
3.941802477978602e-07
3.941808108777109e-07
3.941813546412905e-07
3.941818777492694e-07
3.941823788055202e-07
3.941828563688569e-07
3.941833089663842e-07
3.941837351085098e-07
3.941841333053888e-07
3.941845020848085e-07
3.941848400112819e-07
3.941851457062332e-07
3.941854178691341e-07
3.941856552994984e-07
3.941858569197185e-07
3.941860217987814e-07
3.941861491758976e-07
3.94186224869441e-07
3.941646359638009e-07
3.941654413777408e-07
3.94166236353597e-07
3.941670210731359e-07
3.941677957100656e-07
3.941685604137471e-07
3.941693153033987e-07
3.941700604603196e-07
3.941707959205187e-07
3.941715216677799e-07
3.941722376271807e-07
3.941729436590454e-07
3.941736395534719e-07
3.94174325025423e-07
3.941749997104561e-07
3.941756631611849e-07
3.941763148444741e-07
3.941769541395632e-07
3.941775803370581e-07
3.941781926390035e-07
3.94178790160064e-07
3.941793719299016e-07
3.94179936896865e-07
3.941804839330354e-07
3.941810118407036e-07
3.941815193603488e-07
3.94182005180099e-07
3.941824679467081e-07
3.941829062780494e-07
3.9418331877697e-07
3.941837040465683e-07
3.941840607066163e-07
3.941843874111608e-07
3.941846828669625e-07
3.941849458528315e-07
3.941851752396284e-07
3.941853700111272e-07
3.941855292864616e-07
3.941856523471876e-07
3.94185726264919e-07
3.941646309752166e-07
3.941654262304683e-07
3.941662106855904e-07
3.941669845235812e-07
3.941677479202238e-07
3.941685010294894e-07
3.941692439769577e-07
3.941699768518258e-07
3.941706996995854e-07
3.941714125152636e-07
3.941721152372113e-07
3.941728077413814e-07
3.941734898361737e-07
3.941741612578627e-07
3.941748216666498e-07
3.941754706434534e-07
3.941761076873645e-07
3.941767322140295e-07
3.941773435548399e-07
3.941779409571384e-07
3.94178523585462e-07
3.941790905239145e-07
3.941796407797192e-07
3.94180173288074e-07
3.941806869182592e-07
3.941811804811708e-07
3.941816527381791e-07
3.941821024113877e-07
3.941825281952211e-07
3.941829287693258e-07
3.941833028126614e-07
3.941836490186846e-07
3.941839661114993e-07
3.941842528627791e-07
3.94184508109295e-07
3.941847307708471e-07
3.941849198683508e-07
3.941850745417242e-07
3.941851940662478e-07
3.941852659256628e-07
3.941646260834468e-07
3.941654113672759e-07
3.94166185482905e-07
3.941669486273973e-07
3.941677009892391e-07
3.941684427354381e-07
3.941691740053287e-07
3.941698949027936e-07
3.941706054891168e-07
3.941713057764719e-07
3.941719957219563e-07
3.941726752221406e-07
3.941733441082269e-07
3.941740021417194e-07
3.941746490107773e-07
3.941752843272139e-07
3.941759076242006e-07
3.94176518354779e-07
3.941771158911722e-07
3.941776995250572e-07
3.941782684687806e-07
3.9417882185763e-07
3.941793587532041e-07
3.941798781479779e-07
3.941803789710384e-07
3.941808600951106e-07
3.941813203448168e-07
3.941817585062338e-07
3.941821733376392e-07
3.941825635814776e-07
3.941829279774289e-07
3.941832652764206e-07
3.941835742555219e-07
3.941838537334744e-07
3.941841025866302e-07
3.941843197650109e-07
3.941845043079695e-07
3.941846553585505e-07
3.941847721741951e-07
3.941848425644202e-07
3.941646212733693e-07
3.941653967466885e-07
3.941661606832197e-07
3.941669133030169e-07
3.941676548159563e-07
3.941683854098939e-07
3.941691052449904e-07
3.941698144462785e-07
3.941705130968022e-07
3.941712012313729e-07
3.941718788308732e-07
3.941725458170439e-07
3.941732020479209e-07
3.941738473137382e-07
3.941744813334884e-07
3.941751037521145e-07
3.941757141383439e-07
3.941763119833188e-07
3.941768966999469e-07
3.941774676231519e-07
3.941780240109983e-07
3.941785650468031e-07
3.941790898422734e-07
3.941795974417222e-07
3.941800868274e-07
3.941805569259927e-07
3.941810066163081e-07
3.941814347380971e-07
3.94181840102065e-07
3.941822215009649e-07
3.941825777216914e-07
3.94182907558316e-07
3.941832098258654e-07
3.941834833746421e-07
3.941837271048989e-07
3.94183939981465e-07
3.94184121047858e-07
3.941842694391574e-07
3.94184384392177e-07
3.94184453957893e-07
3.941646165304247e-07
3.941653823266259e-07
3.941661362194929e-07
3.941668784597443e-07
3.941676092862163e-07
3.941683289147542e-07
3.94169037532912e-07
3.941697352929171e-07
3.941704223051477e-07
3.941710986321324e-07
3.941717642831589e-07
3.941724192092996e-07
3.941730632990689e-07
3.941736963745494e-07
3.941743181881056e-07
3.941749284197354e-07
3.941755266749867e-07
3.941761124836327e-07
3.941766852990097e-07
3.941772444981948e-07
3.941777893829871e-07
3.941783191818122e-07
3.941788330525562e-07
3.941793300864198e-07
3.941798093128051e-07
3.941802697053077e-07
3.941807101887655e-07
3.941811296474661e-07
3.941815269343887e-07
3.941819008815061e-07
3.941822503110777e-07
3.941825740477342e-07
3.941828709313566e-07
3.941831398304101e-07
3.941833796556244e-07
3.941835893736272e-07
3.941837680201952e-07
3.941839147126672e-07
3.941840286608435e-07
3.941840980600031e-07
3.941646118365834e-07
3.941653680540234e-07
3.941661120054246e-07
3.941668439792765e-07
3.941675642502587e-07
3.941682730687221e-07
3.941689706556927e-07
3.941696571962046e-07
3.941703328330808e-07
3.941709976612777e-07
3.941716517227108e-07
3.941722950015683e-07
3.941729274201406e-07
3.941735488351423e-07
3.941741590345879e-07
3.941747577352117e-07
3.941753445804587e-07
3.941759191391574e-07
3.94176480904797e-07
3.94177029295574e-07
3.941775636552054e-07
3.941780832545581e-07
3.94178587294162e-07
3.94179074907687e-07
3.941795451663353e-07
3.941799970843147e-07
3.941804296253253e-07
3.941808417100854e-07
3.941812322249221e-07
3.941816000313512e-07
3.941819439765738e-07
3.941822629048482e-07
3.941825556695393e-07
3.941828211456942e-07
3.941830582429535e-07
3.94183265918492e-07
3.941834431897827e-07
3.941835891468847e-07
3.941837029638553e-07
3.941837728782339e-07
3.941646071701375e-07
3.941653538646407e-07
3.941660879359325e-07
3.941668097169746e-07
3.941675195246607e-07
3.941682176498628e-07
3.941689043526512e-07
3.941695798560163e-07
3.941702443399676e-07
3.941708979361606e-07
3.941715407230181e-07
3.941721727212461e-07
3.941727938899008e-07
3.941734041228486e-07
3.941740032457603e-07
3.941745910136176e-07
3.941751671087176e-07
3.941757311393053e-07
3.941762826387589e-07
3.941768210654787e-07
3.941773458034759e-07
3.941778561637131e-07
3.941783513862622e-07
3.941788306433425e-07
3.941792930432763e-07
3.941797376353987e-07
3.941801634159753e-07
3.941805693351224e-07
3.941809543047441e-07
3.941813172074464e-07
3.941816569063997e-07
3.941819722560165e-07
3.941822621133553e-07
3.941825253500777e-07
3.941827608647538e-07
3.941829675953387e-07
3.941831445315483e-07
3.941832907269994e-07
3.941834053108561e-07
3.941834764580924e-07
3.941646025056839e-07
3.941653396832877e-07
3.941660638878645e-07
3.941667755031677e-07
3.941674748942617e-07
3.941681623980466e-07
3.941688383187851e-07
3.9416950292212e-07
3.941701564295475e-07
3.94170799013336e-07
3.941714307919e-07
3.941720518255729e-07
3.94172662112848e-07
3.941732615870004e-07
3.941738501131789e-07
3.941744274859671e-07
3.941749934273735e-07
3.941755475853982e-07
3.941760895331189e-07
3.941766187683602e-07
3.941771347140474e-07
3.941776367192129e-07
3.94178124060793e-07
3.941785959462303e-07
3.941790515169129e-07
3.941794898525798e-07
3.941799099766624e-07
3.941803108626047e-07
3.941806914412133e-07
3.941810506089727e-07
3.941813872373033e-07
3.941817001826825e-07
3.941819882975118e-07
3.941822504415698e-07
3.941824854938762e-07
3.941826923647545e-07
3.941828700078948e-07
3.941830174322714e-07
3.941831337136487e-07
3.941832068571784e-07
3.941645978142967e-07
3.941653254242976e-07
3.941660397209086e-07
3.941667411446329e-07
3.941674301141628e-07
3.941681070175303e-07
3.941687722078403e-07
3.941694259976743e-07
3.941700686539055e-07
3.941707003929198e-07
3.941713213762775e-07
3.941719317067087e-07
3.9417253142455e-07
3.941731205045169e-07
3.941736988528653e-07
3.941742663050054e-07
3.941748226234622e-07
3.941753674963616e-07
3.941759005363495e-07
3.941764212800719e-07
3.941769291882373e-07
3.941774236462891e-07
3.941779039658022e-07
3.941783693866193e-07
3.941788190798175e-07
3.941792521515523e-07
3.941796676478572e-07
3.941800645603858e-07
3.941804418332111e-07
3.941807983705687e-07
3.941811330456343e-07
3.941814447101336e-07
3.941817322048052e-07
3.941819943704485e-07
3.941822300594441e-07
3.941824381474977e-07
3.941826175453952e-07
3.941827672105944e-07
3.941828861583834e-07
3.941829621143678e-07
3.941645930636987e-07
3.941653109921706e-07
3.941660152787423e-07
3.941667064261873e-07
3.941673849118906e-07
3.941680511796011e-07
3.941687056354788e-07
3.941693486428905e-07
3.941699805175439e-07
3.941706015230765e-07
3.94171211866982e-07
3.941718116968579e-07
3.941724010970276e-07
3.941729800854467e-07
3.941735486109535e-07
3.941741065509151e-07
3.941746537091253e-07
3.941751898142239e-07
3.941757145184175e-07
3.941762273967547e-07
3.941767279468577e-07
3.941772155892801e-07
3.941776896684412e-07
3.941781494543247e-07
3.941785941449172e-07
3.941790228695346e-07
3.941794346930418e-07
3.94179828621075e-07
3.941802036062769e-07
3.941805585555823e-07
3.941808923385123e-07
3.941812037964261e-07
3.941814917526381e-07
3.941817550232002e-07
3.94181992428177e-07
3.94182202803148e-07
3.941823850106709e-07
3.941825379515171e-07
3.941826605753133e-07
3.941827402160708e-07
3.941645882184984e-07
3.941652962822252e-07
3.94165990390179e-07
3.941666711124448e-07
3.941673389896343e-07
3.94167994525361e-07
3.94168638182567e-07
3.941692703787613e-07
3.941698914815529e-07
3.941705018045615e-07
3.94171101603665e-07
3.941716910734792e-07
3.941722703441858e-07
3.941728394785817e-07
3.941733984694171e-07
3.941739472370314e-07
3.94174485627239e-07
3.94175013409602e-07
3.941755302760128e-07
3.941760358396701e-07
3.941765296345489e-07
3.94177011115329e-07
3.941774796579422e-07
3.941779345607601e-07
3.941783750465182e-07
3.941788002650953e-07
3.941792092971867e-07
3.941796011589944e-07
3.941799748079515e-07
3.941803291495573e-07
3.941806630453146e-07
3.941809753216701e-07
3.94181264779931e-07
3.941815302068913e-07
3.941817703859999e-07
3.941819841087249e-07
3.941821701858276e-07
3.94182327458172e-07
3.94182454806822e-07
3.941825390605244e-07
3.941645832404674e-07
3.941652811814602e-07
3.941659648705763e-07
3.941666349497247e-07
3.9416729202677e-07
3.941679366687695e-07
3.941685693986896e-07
3.941691906910903e-07
3.941698009680822e-07
3.941704005956071e-07
3.941709898800029e-07
3.941715690647516e-07
3.941721383275136e-07
3.94172697777323e-07
3.941732474519967e-07
3.941737873157987e-07
3.941743172572771e-07
3.94174837087404e-07
3.941753465379518e-07
3.941758452602597e-07
3.941763328243105e-07
3.941768087183294e-07
3.941772723488193e-07
3.941777230412956e-07
3.941781600416477e-07
3.941785825183745e-07
3.941789895657004e-07
3.941793802077255e-07
3.941797534036943e-07
3.941801080544203e-07
3.941804430099155e-07
3.941807570781519e-07
3.941810490348895e-07
3.941813176343302e-07
3.941815616203319e-07
3.941817797378392e-07
3.941819707440332e-07
3.941821334188898e-07
3.94182266574625e-07
3.941823564207139e-07
3.941645780888109e-07
3.941652655694218e-07
3.941659385233159e-07
3.941665976681513e-07
3.941672436824798e-07
3.941678771998429e-07
3.941684988059176e-07
3.941691090347275e-07
3.941697083650204e-07
3.941702972169785e-07
3.941708759491158e-07
3.941714448553048e-07
3.941720041620408e-07
3.941725540257689e-07
3.941730945304013e-07
3.941736256849854e-07
3.941741474214785e-07
3.941746595927787e-07
3.941751619709051e-07
3.941756542454581e-07
3.94176136022395e-07
3.941766068231918e-07
3.94177066084428e-07
3.941775131579813e-07
3.941779473118498e-07
3.941783677317972e-07
3.941787735239168e-07
3.941791637182498e-07
3.941795372735802e-07
3.941798930835259e-07
3.941802299839212e-07
3.9418054676153e-07
3.941808421639425e-07
3.941811149104437e-07
3.941813637035624e-07
3.941815872407587e-07
3.941817842257803e-07
3.941819533790552e-07
3.941820934466527e-07
3.941821899063973e-07
3.941645727205326e-07
3.941652493192114e-07
3.941659111414688e-07
3.941665589839609e-07
3.941671935987234e-07
3.94167815688195e-07
3.941684259029003e-07
3.941690248381683e-07
3.941696130310653e-07
3.94170190957483e-07
3.941707590294388e-07
3.941713175923954e-07
3.941718669227456e-07
3.941724072253232e-07
3.941729386309934e-07
3.941734611943451e-07
3.941739748914156e-07
3.941744796175936e-07
3.941749751855686e-07
3.941754613235516e-07
3.941759376736721e-07
3.941764037906955e-07
3.941768591411532e-07
3.941773031029718e-07
3.941777349657092e-07
3.941781539316095e-07
3.941785591175566e-07
3.941789495581701e-07
3.941793242101434e-07
3.941796819580007e-07
3.941800216213543e-07
3.941803419636591e-07
3.941806417024082e-07
3.941809195204837e-07
3.941811740783323e-07
3.941814040263458e-07
3.941816080167427e-07
3.94181784714224e-07
3.941819328046196e-07
3.941820369261101e-07
3.94164567090797e-07
3.941652322986102e-07
3.94165882509646e-07
3.941665186020546e-07
3.941671414034371e-07
3.941677516868981e-07
3.941683501692889e-07
3.941689375085625e-07
3.941695143012248e-07
3.941700810799059e-07
3.941706383110483e-07
3.941711863925401e-07
3.941717256514719e-07
3.94172256341789e-07
3.941727786420061e-07
3.941732926529234e-07
3.941737983952781e-07
3.94174295807524e-07
3.941747847435917e-07
3.941752649707811e-07
3.941757361678187e-07
3.941761979231304e-07
3.94176649733444e-07
3.941770910028325e-07
3.941775210423559e-07
3.941779390704466e-07
3.941783442142556e-07
3.941787355121498e-07
3.941791119176085e-07
3.941794723046635e-07
3.941798154750885e-07
3.94180140167362e-07
3.941804450673765e-07
3.941807288206269e-07
3.941809900454342e-07
3.941812273465534e-07
3.941814393282014e-07
3.941816246054986e-07
3.941817818133617e-07
3.94181894650256e-07
3.941645611533384e-07
3.941652143713078e-07
3.941658524060077e-07
3.941664762187702e-07
3.941670867140545e-07
3.941676847366515e-07
3.941682710705837e-07
3.941688464371102e-07
3.941694114927588e-07
3.941699668274386e-07
3.941705129624926e-07
3.94171050348729e-07
3.941715793643988e-07
3.94172100313064e-07
3.94172613421407e-07
3.941731188369627e-07
3.941736166257552e-07
3.941741067699032e-07
3.941745891651891e-07
3.941750636186632e-07
3.941755298463065e-07
3.941759874708341e-07
3.941764360197582e-07
3.941768749238343e-07
3.941773035159973e-07
3.941777210310757e-07
3.941781266064226e-07
3.941785192838078e-07
3.941788980127634e-07
3.941792616557621e-07
3.94179608995374e-07
3.941799387435738e-07
3.94180249553247e-07
3.941805400315861e-07
3.941808087549892e-07
3.941810542845617e-07
3.941812751811572e-07
3.941814700185408e-07
3.941816373933795e-07
3.941817599767148e-07
3.941645548609444e-07
3.941651953983004e-07
3.941658206045678e-07
3.941664315249986e-07
3.941670291413809e-07
3.94167614370426e-07
3.941681880634242e-07
3.941687510049854e-07
3.941693039116791e-07
3.941698474306779e-07
3.941703821382815e-07
3.941709085382896e-07
3.941714270602792e-07
3.941719380576529e-07
3.941724418055729e-07
3.941729384987254e-07
3.941734282489007e-07
3.941739110824885e-07
3.94174386937825e-07
3.941748556624754e-07
3.941753170105222e-07
3.941757706398824e-07
3.941762161097943e-07
3.941766528785898e-07
3.941770803019037e-07
3.941774976316096e-07
3.941779040156692e-07
3.941782984992814e-07
3.941786800276558e-07
3.94179047450816e-07
3.941793995307705e-07
3.941797349513029e-07
3.941800523305285e-07
3.941803502360014e-07
3.941806272019463e-07
3.941808817476476e-07
3.941811123956255e-07
3.941813176878971e-07
3.941814961984984e-07
3.941816295008587e-07
3.941645481659574e-07
3.941651752393884e-07
3.941657868776004e-07
3.94166384209525e-07
3.941669682937859e-07
3.941675401184093e-07
3.941681006013073e-07
3.941686505897622e-07
3.941691908597746e-07
3.941697221152383e-07
3.941702449869705e-07
3.941707600314412e-07
3.941712677293463e-07
3.941717684838846e-07
3.941722626187842e-07
3.941727503761278e-07
3.941732319138858e-07
3.941737073032829e-07
3.941741765259182e-07
3.94174639470771e-07
3.941750959310558e-07
3.941755456010533e-07
3.94175988072967e-07
3.941764228339942e-07
3.941768492637266e-07
3.941772666321857e-07
3.941776740987809e-07
3.941780707125606e-07
3.941784554142655e-07
3.941788270406514e-07
3.941791843316112e-07
3.941795259405312e-07
3.9417985044816e-07
3.941801563799603e-07
3.941804422264951e-07
3.941807064658504e-07
3.941809475865041e-07
3.941811641085469e-07
3.941813546009549e-07
3.941814994926985e-07
3.941645410208396e-07
3.941651537548509e-07
3.941657509983963e-07
3.941663339627169e-07
3.941669037818094e-07
3.94167461513498e-07
3.941680081408184e-07
3.941685445723534e-07
3.941690716422443e-07
3.941695901100013e-07
3.941701006599958e-07
3.941706039006095e-07
3.941711003630961e-07
3.941715905000759e-07
3.941720746836933e-07
3.941725532034935e-07
3.941730262638974e-07
3.94173493981472e-07
3.941739563818248e-07
3.941744133963004e-07
3.9417486485843e-07
3.941753105002378e-07
3.941757499484571e-07
3.941761827208187e-07
3.941766082225508e-07
3.941770257434142e-07
3.941774344555567e-07
3.941778334127008e-07
3.941782215512107e-07
3.941785976937343e-07
3.941789605561134e-07
3.941793087582778e-07
3.941796408396568e-07
3.94179955279277e-07
3.941802505202449e-07
3.941805249975965e-07
3.941807771677204e-07
3.941810055369806e-07
3.941812086868828e-07
3.941813658844323e-07
3.941645333788019e-07
3.941651308072591e-07
3.941657127441474e-07
3.941662804804908e-07
3.941668352231007e-07
3.941673780971099e-07
3.941679101483447e-07
3.941684323445009e-07
3.941689455759224e-07
3.941694506559971e-07
3.941699483211746e-07
3.941704392305152e-07
3.941709239648719e-07
3.941714030255829e-07
3.941718768327796e-07
3.94172345723311e-07
3.941728099481788e-07
3.941732696697e-07
3.941737249581845e-07
3.941741757883429e-07
3.941746220353279e-07
3.941750634704926e-07
3.941754997569441e-07
3.941759304449946e-07
3.941763549676721e-07
3.941767726365713e-07
3.941771826384261e-07
3.941775840329179e-07
3.941779757524404e-07
3.941783566046784e-07
3.941787252790025e-07
3.941790803576998e-07
3.941794203330101e-07
3.941797436304545e-07
3.941800486384176e-07
3.941803337429819e-07
3.941805973660614e-07
3.941808380042275e-07
3.941810542657756e-07
3.941812242728773e-07
3.941645251944607e-07
3.941651062634255e-07
3.941656718991343e-07
3.941662234685751e-07
3.941667622477052e-07
3.941672894254633e-07
3.941678061072091e-07
3.941683133167871e-07
3.941688119980613e-07
3.941693030159404e-07
3.94169787156922e-07
3.941702651290301e-07
3.941707375613238e-07
3.941712050027965e-07
3.941716679208385e-07
3.941721266991847e-07
3.941725816353478e-07
3.941730329376464e-07
3.941734807217293e-07
3.941739250066575e-07
3.941743657105599e-07
3.941748026458748e-07
3.941752355141935e-07
3.941756639008527e-07
3.941760872693262e-07
3.941765049557601e-07
3.941769161639768e-07
3.941773199615516e-07
3.941777152777934e-07
3.941781009047187e-07
3.941784755023412e-07
3.941788376098292e-07
3.941791856639829e-07
3.941795180261538e-07
3.94179833017979e-07
3.941801289649637e-07
3.941804042456254e-07
3.941806573432014e-07
3.941808868983803e-07
3.94181069942828e-07
3.941645164245507e-07
3.941650799964914e-07
3.941656282580444e-07
3.941661626470314e-07
3.941666845036871e-07
3.941671950762006e-07
3.941676955252748e-07
3.941681869270998e-07
3.941686702756523e-07
3.941691464843583e-07
3.941696163871396e-07
3.941700807387768e-07
3.941705402146893e-07
3.941709954100871e-07
3.941714468385253e-07
3.94171894929925e-07
3.941723400279805e-07
3.941727823870926e-07
3.941732221687064e-07
3.941736594371394e-07
3.941740941548727e-07
3.941745261772691e-07
3.941749552467516e-07
3.941753809864803e-07
3.941758028935744e-07
3.941762203321561e-07
3.941766325264868e-07
3.941770385548832e-07
3.941774373452785e-07
3.94177827673786e-07
3.941782081680282e-07
3.941785773173087e-07
3.94178933492028e-07
3.941792749742833e-07
3.941796000008303e-07
3.941799068175943e-07
3.941801937424824e-07
3.941804592317005e-07
3.941807019483637e-07
3.941808979206554e-07
3.941645070286891e-07
3.941650518881238e-07
3.941655816295213e-07
3.941660977550068e-07
3.941666016630122e-07
3.941670946553374e-07
3.941675779428802e-07
3.941680526495334e-07
3.941685198152262e-07
3.941689803982321e-07
3.941694352767039e-07
3.941698852494222e-07
3.9417033103588e-07
3.94170773275621e-07
3.941712125269072e-07
3.941716492648047e-07
3.941720838785574e-07
3.94172516668438e-07
3.941729478419374e-07
3.941733775093726e-07
3.941738056788276e-07
3.941742322504532e-07
3.941746570099776e-07
3.941750796215241e-07
3.941754996196181e-07
3.941759164005872e-07
3.941763292135766e-07
3.941767371517735e-07
3.941771391447859e-07
3.941775339537275e-07
3.941779201711998e-07
3.941782962290889e-07
3.941786604176459e-07
3.941790109193914e-07
3.941793458604173e-07
3.941796633789704e-07
3.941799617063408e-07
3.941802392491892e-07
3.941804946637735e-07
3.941807030746556e-07
3.941644969701374e-07
3.941650218307901e-07
3.941655318397957e-07
3.941660285556471e-07
3.941665134276333e-07
3.941669878044405e-07
3.941674529410568e-07
3.941679100035743e-07
3.941683600729836e-07
3.941688041480645e-07
3.941692431474074e-07
3.941696779105287e-07
3.941701091981959e-07
3.941705376919675e-07
3.941709639929473e-07
3.941713886199049e-07
3.941718120066332e-07
3.941722344987226e-07
3.941726563496276e-07
3.941730777160914e-07
3.941734986528513e-07
3.941739191065406e-07
3.941743389086956e-07
3.941747577677566e-07
3.941751752599163e-07
3.941755908188416e-07
3.941760037243227e-07
3.941764130903026e-07
3.941768178531969e-07
3.941772167621065e-07
3.941776083735788e-07
3.941779910546785e-07
3.941783629994431e-07
3.941787222645346e-07
3.941790668296377e-07
3.941793946851013e-07
3.941797039410965e-07
3.9417999293539e-07
3.941802602913039e-07
3.941804803020705e-07
3.941644862166402e-07
3.941649897301215e-07
3.94165478736454e-07
3.941659548411226e-07
3.941664195357078e-07
3.941668742079561e-07
3.94167320149896e-07
3.941677585635028e-07
3.941681905651779e-07
3.941686171892275e-07
3.941690393903046e-07
3.941694580448361e-07
3.941698739516012e-07
3.941702878313763e-07
3.941707003257952e-07
3.941711119954553e-07
3.941715233172511e-07
3.9417193468109e-07
3.94172346385855e-07
3.94172758634715e-07
3.94173171529663e-07
3.941735850651834e-07
3.941739991208896e-07
3.941744134529037e-07
3.941748276837208e-07
3.941752412903278e-07
3.941756535904155e-07
3.941760637268281e-07
3.941764706509046e-07
3.941768731062333e-07
3.941772696156668e-07
3.941776584762335e-07
3.941780377688326e-07
3.9417840539178e-07
3.941787591289503e-07
3.941790967622767e-07
3.94179416230842e-07
3.941797158107793e-07
3.941799941938266e-07
3.941802249738776e-07
3.941644747412115e-07
3.941649555072571e-07
3.941654221921878e-07
3.941658764376828e-07
3.941663197678205e-07
3.941667536005495e-07
3.941671792569698e-07
3.941675979678047e-07
3.941680108785443e-07
3.94168419053402e-07
3.941688234781386e-07
3.941692250617695e-07
3.941696246373025e-07
3.941700229614851e-07
3.941704207136785e-07
3.941708184939488e-07
3.941712168203482e-07
3.94171616125547e-07
3.941720167527336e-07
3.941724189508656e-07
3.941728228691502e-07
3.941732285506467e-07
3.941736359247586e-07
3.941740447983116e-07
3.94174454844749e-07
3.941748655909809e-07
3.941752764013462e-07
3.941756864583619e-07
3.941760947403868e-07
3.941764999972774e-07
3.941769007266779e-07
3.941772951560583e-07
3.941776812390473e-07
3.941780566788146e-07
3.941784189962777e-07
3.941787656659099e-07
3.941790943482522e-07
3.941794032572883e-07
3.941796916988071e-07
3.941799313345716e-07
3.941644625229601e-07
3.941649191012051e-07
3.941653621085235e-07
3.941657932106226e-07
3.941662139531234e-07
3.941666257743156e-07
3.941670300155504e-07
3.941674279284421e-07
3.94167820680572e-07
3.941682093598628e-07
3.941685949777103e-07
3.941689784708861e-07
3.941693607023784e-07
3.941697424611725e-07
3.941701244610839e-07
3.941705073387783e-07
3.941708916509332e-07
3.941712778708001e-07
3.941716663840161e-07
3.941720574838477e-07
3.94172451365738e-07
3.941728481210307e-07
3.941732477296155e-07
3.941736500511341e-07
3.941740548140339e-07
3.941744616017968e-07
3.941748698352488e-07
3.941752787500133e-07
3.941756873683199e-07
3.941760944653044e-07
3.941764985315642e-07
3.941768977366827e-07
3.941772899030256e-07
3.94177672505488e-07
3.941780427209658e-07
3.94178397560917e-07
3.94178734137733e-07
3.941790501734203e-07
3.941793437669439e-07
3.9417958644919e-07
3.941644495478744e-07
3.941648804711191e-07
3.941652984194365e-07
3.941657050690975e-07
3.94166101975232e-07
3.94166490585707e-07
3.941668722525468e-07
3.941672482397422e-07
3.941676197293871e-07
3.941679878263981e-07
3.941683535618512e-07
3.941687178949917e-07
3.94169081714104e-07
3.941694458362315e-07
3.941698110059031e-07
3.941701778929746e-07
3.941705470896352e-07
3.941709191067962e-07
3.941712943698212e-07
3.941716732137706e-07
3.941720558780868e-07
3.941724425006469e-07
3.941728331109125e-07
3.941732276217474e-07
3.941736258191287e-07
3.941740273487238e-07
3.941744316977626e-07
3.94174838170358e-07
3.941752458542936e-07
3.94175653577752e-07
3.941760598559534e-07
3.941764628306464e-07
3.941768602108881e-07
3.94177249231985e-07
3.941776266602212e-07
3.941779888784181e-07
3.941783320825368e-07
3.941786525951555e-07
3.941789457867843e-07
3.94179186212418e-07
3.941644358095783e-07
3.941648395984746e-07
3.941652310947725e-07
3.941656119706499e-07
3.941659837777594e-07
3.941663479620105e-07
3.941667058758895e-07
3.941670587866829e-07
3.941674078829665e-07
3.941677542794961e-07
3.941680990206651e-07
3.941684430825289e-07
3.941687873735978e-07
3.941691327344143e-07
3.941694799360277e-07
3.941698296775976e-07
3.94170182583088e-07
3.941705391974105e-07
3.941708999819664e-07
3.941712653098589e-07
3.941716354607505e-07
3.941720106153855e-07
3.941723908495302e-07
3.941727761270058e-07
3.941731662909462e-07
3.941735610520966e-07
3.941739599721208e-07
3.94174362439076e-07
3.941747676314688e-07
3.941751744670893e-07
3.94175581533692e-07
3.941759870008458e-07
3.941763885178237e-07
3.94176783113998e-07
3.941771671359499e-07
3.941775362692746e-07
3.941778856731034e-07
3.941782101302096e-07
3.941785033544285e-07
3.941787404738343e-07
3.941644213100706e-07
3.941647964891359e-07
3.941651601434574e-07
3.941655139253902e-07
3.941658593693485e-07
3.941661979071741e-07
3.941665308811173e-07
3.941668595523195e-07
3.941671851074204e-07
3.941675086635345e-07
3.941678312717093e-07
3.941681539188474e-07
3.941684775283345e-07
3.941688029593181e-07
3.941691310048573e-07
3.941694623890873e-07
3.941697977634834e-07
3.941701377025622e-07
3.941704826991004e-07
3.941708331591657e-07
3.941711893970878e-07
3.941715516304425e-07
3.941719199750276e-07
3.941722944395266e-07
3.941726749192591e-07
3.941730611878249e-07
3.941734528843795e-07
3.941738494928278e-07
3.941742503073945e-07
3.941746543779948e-07
3.941750604286999e-07
3.941754667426848e-07
3.941758710099622e-07
3.941762701488437e-07
3.941766601459316e-07
3.941770360070525e-07
3.94177391944405e-07
3.941777218632427e-07
3.941780171741002e-07
3.941782504375287e-07
3.941644060603852e-07
3.941647511753008e-07
3.941650856164247e-07
3.941654109997116e-07
3.941657288280598e-07
3.941660405068041e-07
3.941663473570406e-07
3.941666506240665e-07
3.94166951483979e-07
3.941672510485696e-07
3.941675503686761e-07
3.941678504359091e-07
3.941681521829805e-07
3.941684564825865e-07
3.941687641450538e-07
3.941690759148984e-07
3.941693924664273e-07
3.941697143987898e-07
3.94170042230589e-07
3.941703763945009e-07
3.941707172321067e-07
3.941710649892177e-07
3.941714198117788e-07
3.941717817423868e-07
3.941721507171337e-07
3.941725265621255e-07
3.941729089877429e-07
3.941732975764151e-07
3.941736917561661e-07
3.941740907500812e-07
3.94174493491867e-07
3.941748984936232e-07
3.941753036436261e-07
3.941757059228065e-07
3.941761010824295e-07
3.941764834321053e-07
3.94176846042067e-07
3.941771800823244e-07
3.941774728437317e-07
3.941776983889389e-07
3.941643900813506e-07
3.941647037174399e-07
3.941650076093644e-07
3.941653033195416e-07
3.941655923050015e-07
3.941658759321841e-07
3.941661554901267e-07
3.941664321985939e-07
3.941667072144644e-07
3.941669816364534e-07
3.941672565082534e-07
3.941675328199825e-07
3.941678115081046e-07
3.941680934537885e-07
3.941683794798526e-07
3.941686703465329e-07
3.941689667461455e-07
3.941692692971522e-07
3.941695785378234e-07
3.941698949200363e-07
3.941702188035785e-07
3.941705504513745e-07
3.941708900259397e-07
3.941712375873622e-07
3.941715930931034e-07
3.941719564001024e-07
3.941723272689015e-07
3.941727053661946e-07
3.941730902549298e-07
3.941734813573074e-07
3.941738778826924e-07
3.941742787055447e-07
3.941746821369208e-07
3.94175085517769e-07
3.94175484625856e-07
3.941758730548855e-07
3.941762418371502e-07
3.941765776054384e-07
3.941768655456119e-07
3.94177083363479e-07
3.941643734044577e-07
3.941646542064879e-07
3.941649262653859e-07
3.941651910730806e-07
3.941654500270611e-07
3.941657044430475e-07
3.94165955567473e-07
3.941662045850561e-07
3.941664526248743e-07