# Force         
# CofR          : (0.00000000e+00 0.00000000e+00 0.00000000e+00)
#
# Time          	total_x total_y total_z	pressure_x pressure_y pressure_z	viscous_x viscous_y viscous_z
0.0005           3.02515709e-01 2.34595301e-05 1.26941320e-14 2.90122793e-01 2.41189770e-05 -1.01078867e-23 1.23929164e-02 -6.59446916e-07 1.26941320e-14
0.001            -6.23375085e-02 -2.12031971e-05 1.26941320e-14 -7.16017099e-02 -2.04834674e-05 3.50555555e-24 9.26420142e-03 -7.19729754e-07 1.26941320e-14
0.0015           -2.65267201e-02 4.68858279e-05 1.26941320e-14 -3.31492465e-02 4.65202188e-05 2.28784628e-24 6.62252637e-03 3.65609037e-07 1.26941320e-14
0.002            7.17407281e-03 2.01107346e-05 1.26941320e-14 2.34054733e-03 1.97141229e-05 5.43035445e-25 4.83352548e-03 3.96611602e-07 1.26941320e-14
0.0025           7.19883330e-03 1.07906404e-05 1.26941320e-14 2.91753642e-03 1.15641889e-05 5.12987795e-25 4.28129688e-03 -7.73548562e-07 1.26941320e-14
0.003            6.34266317e-03 1.10141519e-05 1.26941320e-14 2.43812262e-03 1.08117353e-05 5.92615454e-25 3.90454055e-03 2.02416611e-07 1.26941320e-14
0.0035           6.37395924e-03 1.20565112e-05 1.26941320e-14 2.76675997e-03 1.07642908e-05 5.66738148e-25 3.60719927e-03 1.29222042e-06 1.26941320e-14
0.004            6.26678205e-03 1.13262473e-05 1.26941320e-14 2.89356701e-03 1.02975939e-05 5.45280359e-25 3.37321505e-03 1.02865340e-06 1.26941320e-14
0.0045           6.13520873e-03 1.55775988e-05 1.26941320e-14 2.95206039e-03 1.45134895e-05 5.33624710e-25 3.18314833e-03 1.06410925e-06 1.26941320e-14
0.005            6.01221110e-03 1.49049909e-05 1.26941320e-14 2.98666020e-03 1.37825617e-05 5.24009682e-25 3.02555091e-03 1.12242924e-06 1.26941320e-14
0.0055           5.90363232e-03 1.44378332e-05 1.26941320e-14 3.01144816e-03 1.32632147e-05 5.15622896e-25 2.89218415e-03 1.17461845e-06 1.26941320e-14
0.006            5.81233369e-03 1.46155773e-05 1.26941320e-14 3.03442690e-03 1.33898824e-05 5.07596580e-25 2.77790679e-03 1.22569486e-06 1.26941320e-14
0.0065           5.73494675e-03 1.49589034e-05 1.26941320e-14 3.05621063e-03 1.36775085e-05 5.00169755e-25 2.67873612e-03 1.28139486e-06 1.26941320e-14
0.007            5.66715852e-03 1.39993640e-05 1.26941320e-14 3.07558351e-03 1.26754629e-05 4.94582136e-25 2.59157501e-03 1.32390110e-06 1.26941320e-14
0.0075           5.60854581e-03 1.39279725e-05 1.26941320e-14 3.09458024e-03 1.25713126e-05 4.89101495e-25 2.51396557e-03 1.35665992e-06 1.26941320e-14
0.008            5.56079871e-03 1.36481043e-05 1.26941320e-14 3.11598120e-03 1.22665947e-05 4.84477177e-25 2.44481750e-03 1.38150952e-06 1.26941320e-14
0.0085           5.52022825e-03 1.27858008e-05 1.26941320e-14 3.13787207e-03 1.13964752e-05 4.79929536e-25 2.38235617e-03 1.38932553e-06 1.26941320e-14
0.009            5.48755448e-03 1.22394838e-05 1.26941320e-14 3.16158586e-03 1.08450561e-05 4.75469784e-25 2.32596862e-03 1.39442764e-06 1.26941320e-14
0.0095           5.46020561e-03 1.13949508e-05 1.26941320e-14 3.18536551e-03 1.00046132e-05 4.70504044e-25 2.27484009e-03 1.39033759e-06 1.26941320e-14
0.01             5.43912213e-03 1.11922623e-05 1.26941320e-14 3.21073105e-03 9.81019816e-06 4.65863495e-25 2.22839108e-03 1.38206415e-06 1.26941320e-14
0.0105           5.42232840e-03 1.07593702e-05 1.26941320e-14 3.23652964e-03 9.38525979e-06 4.60415382e-25 2.18579875e-03 1.37411036e-06 1.26941320e-14
0.011            5.40883986e-03 1.06931500e-05 1.26941320e-14 3.26215379e-03 9.32312183e-06 4.55976792e-25 2.14668607e-03 1.37002819e-06 1.26941320e-14
0.0115           5.39957339e-03 1.06281075e-05 1.26941320e-14 3.28923541e-03 9.25313654e-06 4.51407532e-25 2.11033798e-03 1.37497101e-06 1.26941320e-14
0.012            5.39337274e-03 1.05368689e-05 1.26941320e-14 3.31682677e-03 9.16550149e-06 4.46737219e-25 2.07654597e-03 1.37136739e-06 1.26941320e-14
0.0125           5.39029017e-03 1.08367442e-05 1.26941320e-14 3.34510529e-03 9.46486694e-06 4.42071431e-25 2.04518488e-03 1.37187722e-06 1.26941320e-14
0.013            5.38939679e-03 1.09530145e-05 1.26941320e-14 3.37334884e-03 9.58911108e-06 4.37302792e-25 2.01604795e-03 1.36390345e-06 1.26941320e-14
0.0135           5.39115109e-03 1.11714254e-05 1.26941320e-14 3.40305339e-03 9.78362049e-06 4.33399694e-25 1.98809770e-03 1.38780491e-06 1.26941320e-14
0.014            5.39420208e-03 1.13336271e-05 1.26941320e-14 3.43224147e-03 9.92153646e-06 4.29114898e-25 1.96196061e-03 1.41209063e-06 1.26941320e-14
0.0145           5.39872805e-03 1.17332298e-05 1.26941320e-14 3.46083893e-03 1.03234768e-05 4.25320559e-25 1.93788912e-03 1.40975296e-06 1.26941320e-14
0.015            5.40434542e-03 1.16417046e-05 1.26941320e-14 3.48906078e-03 1.02233330e-05 4.21446733e-25 1.91528464e-03 1.41837161e-06 1.26941320e-14
0.0155           5.41217736e-03 1.16472494e-05 1.26941320e-14 3.51809271e-03 1.02201783e-05 4.17955894e-25 1.89408465e-03 1.42707110e-06 1.26941320e-14
0.016            5.42119645e-03 1.16013499e-05 1.26941320e-14 3.54709825e-03 1.01547080e-05 4.14183278e-25 1.87409820e-03 1.44664193e-06 1.26941320e-14
0.0165           5.43139264e-03 1.17579117e-05 1.26941320e-14 3.57618656e-03 1.03188354e-05 4.11021233e-25 1.85520608e-03 1.43907633e-06 1.26941320e-14
0.017            5.44148066e-03 1.17551462e-05 1.26941320e-14 3.60406760e-03 1.03082401e-05 4.07842771e-25 1.83741306e-03 1.44690605e-06 1.26941320e-14
0.0175           5.45231545e-03 1.18214367e-05 1.26941320e-14 3.63185096e-03 1.03534655e-05 4.04823670e-25 1.82046449e-03 1.46797117e-06 1.26941320e-14
0.018            5.46296610e-03 1.14872439e-05 1.26941320e-14 3.65844400e-03 9.99323925e-06 4.02437329e-25 1.80452209e-03 1.49400460e-06 1.26941320e-14
0.0185           5.47579728e-03 1.18643737e-05 1.26941320e-14 3.68629741e-03 1.03468155e-05 3.99634940e-25 1.78949987e-03 1.51755817e-06 1.26941320e-14
0.019            5.48870359e-03 1.20122902e-05 1.26941320e-14 3.71342841e-03 1.04647613e-05 3.97161915e-25 1.77527517e-03 1.54752882e-06 1.26941320e-14
0.0195           5.50118610e-03 1.17286710e-05 1.26941320e-14 3.73958302e-03 1.01819249e-05 3.95136999e-25 1.76160308e-03 1.54674618e-06 1.26941320e-14
0.02             5.51284315e-03 1.25245513e-05 1.26941320e-14 3.76433987e-03 1.09775352e-05 3.92813597e-25 1.74850328e-03 1.54701607e-06 1.26941320e-14
0.0205           5.52465073e-03 1.13099342e-05 1.26941320e-14 3.78843781e-03 9.76709213e-06 3.90172824e-25 1.73621292e-03 1.54284207e-06 1.26941320e-14
0.021            5.53463993e-03 1.00153000e-05 1.26941320e-14 3.81021881e-03 8.50087338e-06 3.88588223e-25 1.72442112e-03 1.51442660e-06 1.26941320e-14
0.0215           5.54647250e-03 1.22615762e-05 1.26941320e-14 3.83345256e-03 1.07410840e-05 3.85909272e-25 1.71301994e-03 1.52049220e-06 1.26941320e-14
0.022            5.55977234e-03 9.67191149e-06 1.26941320e-14 3.85766359e-03 8.15478331e-06 3.83342543e-25 1.70210875e-03 1.51712818e-06 1.26941320e-14
0.0225           5.57247014e-03 8.30816203e-06 1.26941320e-14 3.88077156e-03 6.83452345e-06 3.80675366e-25 1.69169858e-03 1.47363857e-06 1.26941320e-14
0.023            5.58356934e-03 8.74437647e-06 1.26941320e-14 3.90184097e-03 7.31313942e-06 3.77984636e-25 1.68172837e-03 1.43123706e-06 1.26941320e-14
0.0235           5.59409125e-03 9.36255369e-06 1.26941320e-14 3.92194463e-03 7.94382011e-06 3.75355686e-25 1.67214661e-03 1.41873358e-06 1.26941320e-14
0.024            5.60351839e-03 8.11904269e-06 1.26941320e-14 3.94058883e-03 6.69190100e-06 3.72624038e-25 1.66292956e-03 1.42714169e-06 1.26941320e-14
0.0245           5.61572591e-03 8.33622851e-06 1.26941320e-14 3.96168482e-03 6.94672542e-06 3.69778658e-25 1.65404109e-03 1.38950308e-06 1.26941320e-14
0.025            5.62501561e-03 8.62868050e-06 1.26941320e-14 3.97945747e-03 7.30825816e-06 3.67096668e-25 1.64555814e-03 1.32042234e-06 1.26941320e-14
0.0255           5.63468605e-03 7.88029812e-06 1.26941320e-14 3.99716058e-03 6.56621025e-06 3.64456857e-25 1.63752547e-03 1.31408787e-06 1.26941320e-14
0.026            5.64389196e-03 8.06965222e-06 1.26941320e-14 4.01404201e-03 6.75673599e-06 3.61980855e-25 1.62984995e-03 1.31291623e-06 1.26941320e-14
0.0265           5.65251730e-03 9.24280027e-06 1.26941320e-14 4.03004460e-03 7.91096150e-06 3.59749791e-25 1.62247270e-03 1.33183877e-06 1.26941320e-14
0.027            5.66098693e-03 7.93766281e-06 1.26941320e-14 4.04564249e-03 6.58028519e-06 3.57382959e-25 1.61534444e-03 1.35737762e-06 1.26941320e-14
0.0275           5.66912957e-03 7.44780645e-06 1.26941320e-14 4.06068659e-03 6.10341230e-06 3.54738825e-25 1.60844297e-03 1.34439415e-06 1.26941320e-14
0.028            5.67641492e-03 7.26745796e-06 1.26941320e-14 4.07465340e-03 5.93778836e-06 3.52310093e-25 1.60176151e-03 1.32966961e-06 1.26941320e-14
0.0285           5.68291137e-03 6.79219102e-06 1.26941320e-14 4.08761058e-03 5.47994455e-06 3.49887018e-25 1.59530079e-03 1.31224647e-06 1.26941320e-14
0.029            5.68911447e-03 6.32818083e-06 1.26941320e-14 4.10006641e-03 5.05245630e-06 3.47471844e-25 1.58904805e-03 1.27572454e-06 1.26941320e-14
0.0295           5.69469939e-03 5.64097801e-06 1.26941320e-14 4.11173233e-03 4.42518782e-06 3.45164649e-25 1.58296706e-03 1.21579019e-06 1.26941320e-14
0.03             5.69903317e-03 5.42969361e-06 1.26941320e-14 4.12196552e-03 4.25004823e-06 3.42600292e-25 1.57706766e-03 1.17964539e-06 1.26941320e-14
0.0305           5.70315395e-03 5.04571604e-06 1.26941320e-14 4.13179225e-03 3.90054913e-06 3.40098615e-25 1.57136170e-03 1.14516692e-06 1.26941320e-14
0.031            5.70709514e-03 4.54168891e-06 1.26941320e-14 4.14125326e-03 3.43053629e-06 3.37557993e-25 1.56584188e-03 1.11115262e-06 1.26941320e-14
0.0315           5.71014556e-03 4.21507850e-06 1.26941320e-14 4.14966024e-03 3.13866181e-06 3.35117030e-25 1.56048532e-03 1.07641669e-06 1.26941320e-14
0.032            5.71378446e-03 3.16777400e-06 1.26941320e-14 4.15849413e-03 2.13360688e-06 3.32891203e-25 1.55529033e-03 1.03416711e-06 1.26941320e-14
0.0325           5.71693110e-03 3.22667148e-06 1.26941320e-14 4.16667611e-03 2.23522330e-06 3.30505136e-25 1.55025499e-03 9.91448179e-07 1.26941320e-14
0.033            5.71801648e-03 2.59525609e-06 1.26941320e-14 4.17263914e-03 1.64554280e-06 3.28292731e-25 1.54537735e-03 9.49713296e-07 1.26941320e-14
0.0335           5.72000743e-03 2.20886204e-06 1.26941320e-14 4.17936985e-03 1.30125746e-06 3.25768990e-25 1.54063757e-03 9.07604584e-07 1.26941320e-14
0.034            5.72057327e-03 1.79443317e-06 1.26941320e-14 4.18456086e-03 9.27410607e-07 3.23645280e-25 1.53601241e-03 8.67022563e-07 1.26941320e-14
0.0345           5.72142211e-03 1.39881327e-06 1.26941320e-14 4.18993746e-03 5.72021637e-07 3.21263008e-25 1.53148464e-03 8.26791633e-07 1.26941320e-14
0.035            5.72162225e-03 9.25827010e-07 1.26941320e-14 4.19454964e-03 1.43088629e-07 3.19107216e-25 1.52707261e-03 7.82738381e-07 1.26941320e-14
0.0355           5.72154190e-03 3.08792791e-07 1.26941320e-14 4.19876182e-03 -4.24034106e-07 3.17033716e-25 1.52278008e-03 7.32826897e-07 1.26941320e-14
0.036            5.72049065e-03 9.17308617e-07 1.26941320e-14 4.20188897e-03 2.27221275e-07 3.14957730e-25 1.51860168e-03 6.90087342e-07 1.26941320e-14
0.0365           5.71890557e-03 -2.75166725e-07 1.26941320e-14 4.20438401e-03 -9.25682792e-07 3.12867794e-25 1.51452156e-03 6.50516067e-07 1.26941320e-14
0.037            5.71764787e-03 -3.22604178e-07 1.26941320e-14 4.20710873e-03 -9.42688412e-07 3.10752467e-25 1.51053914e-03 6.20084234e-07 1.26941320e-14
0.0375           5.71577441e-03 -9.78764431e-07 1.26941320e-14 4.20912090e-03 -1.56295657e-06 3.08746523e-25 1.50665350e-03 5.84192138e-07 1.26941320e-14
0.038            5.71415199e-03 -1.42750981e-06 1.26941320e-14 4.21129623e-03 -1.95975546e-06 3.06650916e-25 1.50285577e-03 5.32245646e-07 1.26941320e-14
0.0385           5.71209002e-03 -1.76794478e-06 1.26941320e-14 4.21294771e-03 -2.24889010e-06 3.04676304e-25 1.49914231e-03 4.80945319e-07 1.26941320e-14
0.039            5.70917713e-03 -1.76589953e-06 1.26941320e-14 4.21367657e-03 -2.20354988e-06 3.02727913e-25 1.49550056e-03 4.37650354e-07 1.26941320e-14
0.0395           5.70603111e-03 -2.29811050e-06 1.26941320e-14 4.21410670e-03 -2.69600986e-06 3.00814027e-25 1.49192441e-03 3.97899365e-07 1.26941320e-14
0.04             5.70325503e-03 -2.77158571e-06 1.26941320e-14 4.21483513e-03 -3.12670306e-06 2.98727183e-25 1.48841989e-03 3.55117353e-07 1.26941320e-14
0.0405           5.70012567e-03 -2.74256417e-06 1.26941320e-14 4.21513608e-03 -3.05902207e-06 2.96873103e-25 1.48498960e-03 3.16457899e-07 1.26941320e-14
0.041            5.70010943e-03 -3.36418521e-06 1.26941320e-14 4.21844705e-03 -3.64222790e-06 2.94740863e-25 1.48166238e-03 2.78042686e-07 1.26941320e-14
0.0415           5.69232455e-03 -3.82580631e-06 1.26941320e-14 4.21394274e-03 -4.06079000e-06 2.93082817e-25 1.47838182e-03 2.34983689e-07 1.26941320e-14
0.042            5.68786929e-03 -3.65592641e-06 1.26941320e-14 4.21274651e-03 -3.83908904e-06 2.91252401e-25 1.47512278e-03 1.83162630e-07 1.26941320e-14
0.0425           5.68396920e-03 -4.35412681e-06 1.26941320e-14 4.21203225e-03 -4.48250106e-06 2.89506368e-25 1.47193695e-03 1.28374259e-07 1.26941320e-14
0.043            5.67979199e-03 -5.45628324e-06 1.26941320e-14 4.21097362e-03 -5.53066872e-06 2.87744845e-25 1.46881837e-03 7.43854812e-08 1.26941320e-14
0.0435           5.67606648e-03 -4.14852343e-06 1.26941320e-14 4.21030220e-03 -4.19454141e-06 2.85791824e-25 1.46576428e-03 4.60179822e-08 1.26941320e-14
0.044            5.67545213e-03 -4.11934261e-06 1.26941320e-14 4.21264181e-03 -4.15824407e-06 2.83911284e-25 1.46281032e-03 3.89014570e-08 1.26941320e-14
0.0445           5.66447722e-03 -6.04778698e-06 1.26941320e-14 4.20460673e-03 -6.05735376e-06 2.82352964e-25 1.45987049e-03 9.56678690e-09 1.26941320e-14
0.045            5.65617968e-03 -5.49053537e-06 1.26941320e-14 4.19929045e-03 -5.46206992e-06 2.80929061e-25 1.45688923e-03 -2.84654518e-08 1.26941320e-14
0.0455           5.65139103e-03 -5.93227416e-06 1.26941320e-14 4.19744319e-03 -5.87399154e-06 2.79175795e-25 1.45394784e-03 -5.82826232e-08 1.26941320e-14
0.046            5.64601908e-03 -5.33883847e-06 1.26941320e-14 4.19494827e-03 -5.25693522e-06 2.77594458e-25 1.45107080e-03 -8.19032564e-08 1.26941320e-14
0.0465           5.64021998e-03 -6.39513075e-06 1.26941320e-14 4.19197594e-03 -6.28605972e-06 2.75979923e-25 1.44824404e-03 -1.09071031e-07 1.26941320e-14
0.047            5.63475176e-03 -6.38892431e-06 1.26941320e-14 4.18928720e-03 -6.24718050e-06 2.74300785e-25 1.44546456e-03 -1.41743817e-07 1.26941320e-14
0.0475           5.62873198e-03 -6.43974318e-06 1.26941320e-14 4.18600407e-03 -6.27181068e-06 2.72773992e-25 1.44272791e-03 -1.67932499e-07 1.26941320e-14
0.048            5.62281132e-03 -6.90063744e-06 1.26941320e-14 4.18278078e-03 -6.70506778e-06 2.71210787e-25 1.44003054e-03 -1.95569660e-07 1.26941320e-14
0.0485           5.61680426e-03 -6.77843666e-06 1.26941320e-14 4.17943179e-03 -6.55681778e-06 2.69702021e-25 1.43737247e-03 -2.21618881e-07 1.26941320e-14
0.049            5.61066187e-03 -7.38029289e-06 1.26941320e-14 4.17591035e-03 -7.13127070e-06 2.68152944e-25 1.43475151e-03 -2.49022191e-07 1.26941320e-14
0.0495           5.60449939e-03 -6.99253588e-06 1.26941320e-14 4.17233280e-03 -6.71931979e-06 2.66716088e-25 1.43216659e-03 -2.73216094e-07 1.26941320e-14
0.05             5.59856142e-03 -7.71604173e-06 1.26941320e-14 4.16893985e-03 -7.41779684e-06 2.65181955e-25 1.42962157e-03 -2.98244886e-07 1.26941320e-14
0.0505           5.59275499e-03 -7.74188042e-06 1.26941320e-14 4.16563485e-03 -7.41368472e-06 2.63671879e-25 1.42712014e-03 -3.28195698e-07 1.26941320e-14
0.051            5.58604241e-03 -7.79721598e-06 1.26941320e-14 4.16139073e-03 -7.44250151e-06 2.62264099e-25 1.42465169e-03 -3.54714477e-07 1.26941320e-14
0.0515           5.57943593e-03 -7.85263178e-06 1.26941320e-14 4.15722399e-03 -7.47493742e-06 2.60884620e-25 1.42221194e-03 -3.77694364e-07 1.26941320e-14
0.052            5.57246578e-03 -8.49727125e-06 1.26941320e-14 4.15266705e-03 -8.09234575e-06 2.59524005e-25 1.41979873e-03 -4.04925498e-07 1.26941320e-14
0.0525           5.56559512e-03 -7.97689711e-06 1.26941320e-14 4.14818594e-03 -7.54856169e-06 2.58255507e-25 1.41740918e-03 -4.28335417e-07 1.26941320e-14
0.053            5.55875267e-03 -8.24938294e-06 1.26941320e-14 4.14370566e-03 -7.80327042e-06 2.56957670e-25 1.41504701e-03 -4.46112520e-07 1.26941320e-14
0.0535           5.55200536e-03 -8.93559834e-06 1.26941320e-14 4.13929199e-03 -8.46237927e-06 2.55619185e-25 1.41271336e-03 -4.73219064e-07 1.26941320e-14
0.054            5.54667120e-03 -7.82299249e-06 1.26941320e-14 4.13624870e-03 -7.33285569e-06 2.54292447e-25 1.41042250e-03 -4.90136800e-07 1.26941320e-14
0.0545           5.53633923e-03 -8.47750123e-06 1.26941320e-14 4.12820628e-03 -7.97590849e-06 2.53212635e-25 1.40813295e-03 -5.01592747e-07 1.26941320e-14
0.055            5.53006630e-03 -9.85929345e-06 1.26941320e-14 4.12421777e-03 -9.32460458e-06 2.51782661e-25 1.40584853e-03 -5.34688871e-07 1.26941320e-14
0.0555           5.52161709e-03 -1.13851256e-05 1.26941320e-14 4.11802873e-03 -1.07935635e-05 2.50527761e-25 1.40358837e-03 -5.91562125e-07 1.26941320e-14
0.056            5.51228692e-03 -9.69675546e-06 1.26941320e-14 4.11096532e-03 -9.06573108e-06 2.49507379e-25 1.40132160e-03 -6.31024382e-07 1.26941320e-14
0.0565           5.50537680e-03 -9.35762002e-06 1.26941320e-14 4.10630518e-03 -8.71490339e-06 2.48342011e-25 1.39907161e-03 -6.42716628e-07 1.26941320e-14
0.057            5.50008668e-03 -8.72596727e-06 1.26941320e-14 4.10320800e-03 -8.07827249e-06 2.47109999e-25 1.39687868e-03 -6.47694785e-07 1.26941320e-14
0.0575           5.49415724e-03 -1.05248716e-05 1.26941320e-14 4.09941596e-03 -9.85216648e-06 2.45738117e-25 1.39474128e-03 -6.72705131e-07 1.26941320e-14
0.058            5.48707671e-03 -9.64133394e-06 1.26941320e-14 4.09444643e-03 -8.93769658e-06 2.44713705e-25 1.39263029e-03 -7.03637369e-07 1.26941320e-14
0.0585           5.48082957e-03 -9.61348803e-06 1.26941320e-14 4.09028602e-03 -8.89412861e-06 2.43557517e-25 1.39054354e-03 -7.19359421e-07 1.26941320e-14
0.059            5.47459955e-03 -1.01438368e-05 1.26941320e-14 4.08610991e-03 -9.40441734e-06 2.42363800e-25 1.38848963e-03 -7.39419427e-07 1.26941320e-14
0.0595           5.46780598e-03 -1.00913559e-05 1.26941320e-14 4.08135063e-03 -9.33065426e-06 2.41290584e-25 1.38645535e-03 -7.60701681e-07 1.26941320e-14
0.06             5.46301024e-03 -9.77924176e-06 1.26941320e-14 4.07855132e-03 -9.00449146e-06 2.40161423e-25 1.38445892e-03 -7.74750298e-07 1.26941320e-14
0.0605           5.45459390e-03 -1.03095871e-05 1.26941320e-14 4.07211559e-03 -9.51824944e-06 2.39108374e-25 1.38247831e-03 -7.91337705e-07 1.26941320e-14
0.061            5.44823868e-03 -1.04033968e-05 1.26941320e-14 4.06773588e-03 -9.59030925e-06 2.38016695e-25 1.38050280e-03 -8.13087522e-07 1.26941320e-14
0.0615           5.44191781e-03 -1.02592177e-05 1.26941320e-14 4.06336285e-03 -9.42790537e-06 2.36964546e-25 1.37855496e-03 -8.31312375e-07 1.26941320e-14
0.062            5.43544989e-03 -1.01733204e-05 1.26941320e-14 4.05881974e-03 -9.32728405e-06 2.35951645e-25 1.37663015e-03 -8.46036375e-07 1.26941320e-14
0.0625           5.42908110e-03 -1.04463407e-05 1.26941320e-14 4.05435552e-03 -9.58321444e-06 2.34932105e-25 1.37472557e-03 -8.63126291e-07 1.26941320e-14
0.063            5.42288017e-03 -1.05375349e-05 1.26941320e-14 4.05003511e-03 -9.65492277e-06 2.33922545e-25 1.37284506e-03 -8.82612150e-07 1.26941320e-14
0.0635           5.41671375e-03 -1.05106791e-05 1.26941320e-14 4.04572470e-03 -9.61037866e-06 2.32936879e-25 1.37098906e-03 -9.00300426e-07 1.26941320e-14
0.064            5.41082301e-03 -1.07142398e-05 1.26941320e-14 4.04166456e-03 -9.79605989e-06 2.31937598e-25 1.36915845e-03 -9.18179868e-07 1.26941320e-14
0.0645           5.40547353e-03 -1.05979661e-05 1.26941320e-14 4.03811495e-03 -9.66329701e-06 2.30942429e-25 1.36735858e-03 -9.34669048e-07 1.26941320e-14
0.065            5.39978470e-03 -1.09820884e-05 1.26941320e-14 4.03419651e-03 -1.00296277e-05 2.29945658e-25 1.36558820e-03 -9.52460784e-07 1.26941320e-14
0.0655           5.39180487e-03 -1.04326696e-05 1.26941320e-14 4.02798641e-03 -9.46709014e-06 2.29125441e-25 1.36381847e-03 -9.65579454e-07 1.26941320e-14
0.066            5.38620859e-03 -1.04862848e-05 1.26941320e-14 4.02415128e-03 -9.51334009e-06 2.28191321e-25 1.36205731e-03 -9.72944749e-07 1.26941320e-14
0.0665           5.37995247e-03 -1.05222404e-05 1.26941320e-14 4.01963156e-03 -9.53994158e-06 2.27309698e-25 1.36032091e-03 -9.82298810e-07 1.26941320e-14
0.067            5.37200857e-03 -1.15383899e-05 1.26941320e-14 4.01342412e-03 -1.05347984e-05 2.26454310e-25 1.35858445e-03 -1.00359151e-06 1.26941320e-14
0.0675           5.36494138e-03 -1.03770368e-05 1.26941320e-14 4.00809564e-03 -9.35877297e-06 2.25755096e-25 1.35684573e-03 -1.01826386e-06 1.26941320e-14
0.068            5.35735459e-03 -1.05396883e-05 1.26941320e-14 4.00224315e-03 -9.51833664e-06 2.24940541e-25 1.35511144e-03 -1.02135163e-06 1.26941320e-14
0.0685           5.35143313e-03 -1.07143140e-05 1.26941320e-14 3.99803813e-03 -9.68407180e-06 2.24094493e-25 1.35339501e-03 -1.03024223e-06 1.26941320e-14
0.069            5.34561863e-03 -1.07853575e-05 1.26941320e-14 3.99390850e-03 -9.74342230e-06 2.23271230e-25 1.35171013e-03 -1.04193522e-06 1.26941320e-14
0.0695           5.33963247e-03 -1.09727874e-05 1.26941320e-14 3.98958166e-03 -9.91683391e-06 2.22452380e-25 1.35005081e-03 -1.05595354e-06 1.26941320e-14
0.07             5.33376904e-03 -1.10852456e-05 1.26941320e-14 3.98535594e-03 -1.00134116e-05 2.21641419e-25 1.34841310e-03 -1.07183401e-06 1.26941320e-14
0.0705           5.32808054e-03 -1.12650671e-05 1.26941320e-14 3.98128343e-03 -1.01760961e-05 2.20824243e-25 1.34679712e-03 -1.08897099e-06 1.26941320e-14
0.071            5.32209655e-03 -1.10268500e-05 1.26941320e-14 3.97689655e-03 -9.92371602e-06 2.20065293e-25 1.34519999e-03 -1.10313396e-06 1.26941320e-14
0.0715           5.31623326e-03 -1.08195785e-05 1.26941320e-14 3.97261407e-03 -9.70808967e-06 2.19279079e-25 1.34361919e-03 -1.11148888e-06 1.26941320e-14
0.072            5.31047389e-03 -1.10537384e-05 1.26941320e-14 3.96841778e-03 -9.93275342e-06 2.18508619e-25 1.34205611e-03 -1.12098496e-06 1.26941320e-14
0.0725           5.30465485e-03 -1.11882854e-05 1.26941320e-14 3.96414530e-03 -1.00539591e-05 2.17755071e-25 1.34050954e-03 -1.13432635e-06 1.26941320e-14
0.073            5.29908352e-03 -1.11449661e-05 1.26941320e-14 3.96010343e-03 -9.99771173e-06 2.16987236e-25 1.33898009e-03 -1.14725441e-06 1.26941320e-14
0.0735           5.29316092e-03 -1.09764646e-05 1.26941320e-14 3.95569525e-03 -9.81975222e-06 2.16279783e-25 1.33746567e-03 -1.15671241e-06 1.26941320e-14
0.074            5.28741908e-03 -1.11514425e-05 1.26941320e-14 3.95145473e-03 -9.98521471e-06 2.15558790e-25 1.33596435e-03 -1.16622784e-06 1.26941320e-14
0.0745           5.28186986e-03 -1.09775050e-05 1.26941320e-14 3.94739119e-03 -9.80234360e-06 2.14852123e-25 1.33447867e-03 -1.17516139e-06 1.26941320e-14
0.075            5.27638627e-03 -1.13052787e-05 1.26941320e-14 3.94337649e-03 -1.01192856e-05 2.14078950e-25 1.33300978e-03 -1.18599316e-06 1.26941320e-14
0.0755           5.27133901e-03 -1.11270574e-05 1.26941320e-14 3.93977867e-03 -9.92979755e-06 2.13299444e-25 1.33156033e-03 -1.19725986e-06 1.26941320e-14
0.076            5.26589860e-03 -1.12068006e-05 1.26941320e-14 3.93577018e-03 -1.00003200e-05 2.12565601e-25 1.33012841e-03 -1.20648053e-06 1.26941320e-14
0.0765           5.26137446e-03 -1.03521915e-05 1.26941320e-14 3.93265592e-03 -9.14581077e-06 2.11873108e-25 1.32871854e-03 -1.20638069e-06 1.26941320e-14
0.077            5.25577742e-03 -1.07287272e-05 1.26941320e-14 3.92845225e-03 -9.52445132e-06 2.11177325e-25 1.32732517e-03 -1.20427591e-06 1.26941320e-14
0.0775           5.25020409e-03 -1.00395554e-05 1.26941320e-14 3.92426670e-03 -8.83860268e-06 2.10498376e-25 1.32593739e-03 -1.20095273e-06 1.26941320e-14
0.078            5.24423576e-03 -1.07042220e-05 1.26941320e-14 3.91968165e-03 -9.50351794e-06 2.09906532e-25 1.32455411e-03 -1.20070407e-06 1.26941320e-14
0.0785           5.23921372e-03 -1.05656204e-05 1.26941320e-14 3.91603118e-03 -9.35863329e-06 2.09249050e-25 1.32318254e-03 -1.20698714e-06 1.26941320e-14
0.079            5.23425900e-03 -1.05145991e-05 1.26941320e-14 3.91242910e-03 -9.30424680e-06 2.08593183e-25 1.32182990e-03 -1.21035228e-06 1.26941320e-14
0.0795           5.22944416e-03 -1.04089217e-05 1.26941320e-14 3.90894742e-03 -9.19651246e-06 2.07941478e-25 1.32049674e-03 -1.21240919e-06 1.26941320e-14
0.08             5.22326491e-03 -1.09055618e-05 1.26941320e-14 3.90409722e-03 -9.68559082e-06 2.07288514e-25 1.31916770e-03 -1.21997101e-06 1.26941320e-14
0.0805           5.21896637e-03 -1.07900044e-05 1.26941320e-14 3.90111552e-03 -9.55976124e-06 2.06627105e-25 1.31785084e-03 -1.23024314e-06 1.26941320e-14
0.081            5.21339754e-03 -9.81192997e-06 1.26941320e-14 3.89684885e-03 -8.58550773e-06 2.05993502e-25 1.31654870e-03 -1.22642225e-06 1.26941320e-14
0.0815           5.20681267e-03 -9.68056926e-06 1.26941320e-14 3.89157276e-03 -8.46654088e-06 2.05563403e-25 1.31523992e-03 -1.21402838e-06 1.26941320e-14
0.082            5.20218852e-03 -9.60070233e-06 1.26941320e-14 3.88824895e-03 -8.39580087e-06 2.04945541e-25 1.31393958e-03 -1.20490146e-06 1.26941320e-14
0.0825           5.19767883e-03 -9.39775485e-06 1.26941320e-14 3.88501459e-03 -8.20131602e-06 2.04326459e-25 1.31266424e-03 -1.19643883e-06 1.26941320e-14
0.083            5.19320482e-03 -9.16366178e-06 1.26941320e-14 3.88179410e-03 -7.97740902e-06 2.03712439e-25 1.31141071e-03 -1.18625275e-06 1.26941320e-14
0.0835           5.18856612e-03 -8.86871823e-06 1.26941320e-14 3.87839251e-03 -7.69497126e-06 2.03124645e-25 1.31017361e-03 -1.17374697e-06 1.26941320e-14
0.084            5.18382505e-03 -8.66596368e-06 1.26941320e-14 3.87487605e-03 -7.50607586e-06 2.02546121e-25 1.30894900e-03 -1.15988781e-06 1.26941320e-14
0.0845           5.17901391e-03 -8.56146169e-06 1.26941320e-14 3.87127958e-03 -7.41457684e-06 2.01976117e-25 1.30773432e-03 -1.14688486e-06 1.26941320e-14
0.085            5.17424403e-03 -8.39207940e-06 1.26941320e-14 3.86771490e-03 -7.25763593e-06 2.01419031e-25 1.30652912e-03 -1.13444347e-06 1.26941320e-14
0.0855           5.16948990e-03 -8.21076224e-06 1.26941320e-14 3.86415579e-03 -7.09023533e-06 2.00870009e-25 1.30533411e-03 -1.12052691e-06 1.26941320e-14
0.086            5.16487106e-03 -8.10095172e-06 1.26941320e-14 3.86072019e-03 -6.99527707e-06 2.00312739e-25 1.30415087e-03 -1.10567465e-06 1.26941320e-14
0.0865           5.16026092e-03 -7.87672156e-06 1.26941320e-14 3.85728151e-03 -6.78648020e-06 1.99776588e-25 1.30297942e-03 -1.09024136e-06 1.26941320e-14
0.087            5.15565673e-03 -7.63412115e-06 1.26941320e-14 3.85383824e-03 -6.56095906e-06 1.99250887e-25 1.30181849e-03 -1.07316210e-06 1.26941320e-14
0.0875           5.15107529e-03 -7.31850267e-06 1.26941320e-14 3.85040745e-03 -6.26458595e-06 1.98740230e-25 1.30066783e-03 -1.05391672e-06 1.26941320e-14
0.088            5.14650027e-03 -6.98894253e-06 1.26941320e-14 3.84697310e-03 -5.95573823e-06 1.98229279e-25 1.29952718e-03 -1.03320430e-06 1.26941320e-14
0.0885           5.14214007e-03 -6.68607910e-06 1.26941320e-14 3.84374212e-03 -5.67398297e-06 1.97708667e-25 1.29839795e-03 -1.01209612e-06 1.26941320e-14
0.089            5.13826586e-03 -6.54653529e-06 1.26941320e-14 3.84098046e-03 -5.55491790e-06 1.97161629e-25 1.29728540e-03 -9.91617392e-07 1.26941320e-14
0.0895           5.13301536e-03 -6.13572767e-06 1.26941320e-14 3.83683692e-03 -5.16587378e-06 1.96763659e-25 1.29617844e-03 -9.69853885e-07 1.26941320e-14
0.09             5.12865484e-03 -5.91433066e-06 1.26941320e-14 3.83358075e-03 -4.96788040e-06 1.96271490e-25 1.29507409e-03 -9.46450261e-07 1.26941320e-14
0.0905           5.12367511e-03 -5.51502636e-06 1.26941320e-14 3.82970047e-03 -4.59323224e-06 1.95800583e-25 1.29397464e-03 -9.21794123e-07 1.26941320e-14
0.091            5.11937565e-03 -5.20755633e-06 1.26941320e-14 3.82649383e-03 -4.31107572e-06 1.95322395e-25 1.29288181e-03 -8.96480611e-07 1.26941320e-14
0.0915           5.11512605e-03 -4.91067573e-06 1.26941320e-14 3.82332388e-03 -4.04105840e-06 1.94851233e-25 1.29180217e-03 -8.69617333e-07 1.26941320e-14
0.092            5.11089332e-03 -4.62535018e-06 1.26941320e-14 3.82015876e-03 -3.78281461e-06 1.94385798e-25 1.29073456e-03 -8.42535574e-07 1.26941320e-14
0.0925           5.10680955e-03 -4.31067790e-06 1.26941320e-14 3.81713035e-03 -3.49565442e-06 1.93922936e-25 1.28967919e-03 -8.15023485e-07 1.26941320e-14
0.093            5.10276663e-03 -3.88030960e-06 1.26941320e-14 3.81412821e-03 -3.09619301e-06 1.93481492e-25 1.28863842e-03 -7.84116593e-07 1.26941320e-14
0.0935           5.09834620e-03 -3.76722147e-06 1.26941320e-14 3.81074020e-03 -3.01367023e-06 1.93031878e-25 1.28760600e-03 -7.53551245e-07 1.26941320e-14
0.094            5.09373328e-03 -3.62155707e-06 1.26941320e-14 3.80715876e-03 -2.89546011e-06 1.92586477e-25 1.28657453e-03 -7.26096960e-07 1.26941320e-14
0.0945           5.08991225e-03 -3.38398963e-06 1.26941320e-14 3.80436010e-03 -2.68460178e-06 1.92141416e-25 1.28555215e-03 -6.99387848e-07 1.26941320e-14
0.095            5.08517567e-03 -2.83316123e-06 1.26941320e-14 3.80063982e-03 -2.16457336e-06 1.91739998e-25 1.28453585e-03 -6.68587872e-07 1.26941320e-14
0.0955           5.08101698e-03 -2.46511986e-06 1.26941320e-14 3.79749404e-03 -1.83119084e-06 1.91319598e-25 1.28352295e-03 -6.33929023e-07 1.26941320e-14
0.096            5.07702477e-03 -2.15974921e-06 1.26941320e-14 3.79450380e-03 -1.56053322e-06 1.90900852e-25 1.28252097e-03 -5.99215987e-07 1.26941320e-14
0.0965           5.07303254e-03 -1.89804619e-06 1.26941320e-14 3.79150293e-03 -1.33172361e-06 1.90489970e-25 1.28152962e-03 -5.66322587e-07 1.26941320e-14