# Moment        
# CofR          : (0.00000000e+00 0.00000000e+00 0.00000000e+00)
#
# Time          	total_x total_y total_z	pressure_x pressure_y pressure_z	viscous_x viscous_y viscous_z
0.0005           -1.17297651e-05 1.51257854e-01 1.97796751e-09 -1.20594885e-05 1.45061396e-01 2.14123420e-09 3.29723458e-07 6.19645821e-03 -1.63266698e-10
0.001            1.06015986e-05 -3.11687543e-02 -7.11287997e-10 1.02417337e-05 -3.58008550e-02 -9.28522792e-10 3.59864877e-07 4.63210071e-03 2.17234795e-10
0.0015           -2.34429139e-05 -1.32633601e-02 -3.00640865e-11 -2.32601094e-05 -1.65746233e-02 -5.62093464e-10 -1.82804519e-07 3.31126318e-03 5.32029378e-10
0.002            -1.00553673e-05 3.58703641e-03 2.30709338e-10 -9.85706147e-06 1.17027367e-03 -2.96234057e-10 -1.98305801e-07 2.41676274e-03 5.26943395e-10
0.0025           -5.39532019e-06 3.59941665e-03 1.83030082e-10 -5.78209447e-06 1.45876821e-03 -2.40183311e-10 3.86774281e-07 2.14064844e-03 4.23213394e-10
0.003            -5.50707597e-06 3.17133158e-03 2.00333012e-10 -5.40586767e-06 1.21906131e-03 -2.34667577e-10 -1.01208306e-07 1.95227027e-03 4.35000589e-10
0.0035           -6.02825559e-06 3.18697962e-03 1.60163352e-10 -5.38214538e-06 1.38337998e-03 -2.32774907e-10 -6.46110212e-07 1.80359964e-03 3.92938258e-10
0.004            -5.66312366e-06 3.13339103e-03 1.34395446e-10 -5.14879696e-06 1.44678350e-03 -2.21380016e-10 -5.14326698e-07 1.68660752e-03 3.55775462e-10
0.0045           -7.78879938e-06 3.06760436e-03 1.09473608e-10 -7.25674475e-06 1.47603020e-03 -2.20804188e-10 -5.32054627e-07 1.59157417e-03 3.30277796e-10
0.005            -7.45249545e-06 3.00610555e-03 8.95134456e-11 -6.89128083e-06 1.49333010e-03 -2.14756458e-10 -5.61214622e-07 1.51277545e-03 3.04269904e-10
0.0055           -7.21891659e-06 2.95181616e-03 7.96035730e-11 -6.63160736e-06 1.50572408e-03 -2.09436872e-10 -5.87309225e-07 1.44609208e-03 2.89040445e-10
0.006            -7.30778864e-06 2.90616685e-03 7.43923374e-11 -6.69494121e-06 1.51721345e-03 -2.04937679e-10 -6.12847432e-07 1.38895340e-03 2.79330016e-10
0.0065           -7.47945169e-06 2.86747338e-03 7.25834958e-11 -6.83875426e-06 1.52810532e-03 -2.00716380e-10 -6.40697428e-07 1.33936806e-03 2.73299876e-10
0.007            -6.99968199e-06 2.83357926e-03 7.25845477e-11 -6.33773144e-06 1.53779175e-03 -1.96430182e-10 -6.61950550e-07 1.29578751e-03 2.69014730e-10
0.0075           -6.96398624e-06 2.80427291e-03 7.65172770e-11 -6.28565628e-06 1.54729012e-03 -1.92798068e-10 -6.78329958e-07 1.25698279e-03 2.69315345e-10
0.008            -6.82405213e-06 2.78039935e-03 7.88320154e-11 -6.13329737e-06 1.55799060e-03 -1.89174223e-10 -6.90754760e-07 1.22240875e-03 2.68006238e-10
0.0085           -6.39290038e-06 2.76011412e-03 7.66477551e-11 -5.69823761e-06 1.56893604e-03 -1.85713248e-10 -6.94662764e-07 1.19117809e-03 2.62361003e-10
0.009            -6.11974188e-06 2.74377724e-03 8.28446532e-11 -5.42252806e-06 1.58079293e-03 -1.82214041e-10 -6.97213820e-07 1.16298431e-03 2.65058694e-10
0.0095           -5.69747541e-06 2.73010280e-03 9.06673908e-11 -5.00230662e-06 1.59268276e-03 -1.79281425e-10 -6.95168794e-07 1.13742005e-03 2.69948816e-10
0.01             -5.59613115e-06 2.71956106e-03 9.38241892e-11 -4.90509908e-06 1.60536553e-03 -1.76213958e-10 -6.91032074e-07 1.11419554e-03 2.70038147e-10
0.0105           -5.37968508e-06 2.71116420e-03 1.06421866e-10 -4.69262989e-06 1.61826482e-03 -1.73331129e-10 -6.87055181e-07 1.09289938e-03 2.79752995e-10
0.011            -5.34657501e-06 2.70441993e-03 1.18105344e-10 -4.66156092e-06 1.63107690e-03 -1.70427461e-10 -6.85014093e-07 1.07334303e-03 2.88532805e-10
0.0115           -5.31405377e-06 2.69978669e-03 1.40128984e-10 -4.62656827e-06 1.64461770e-03 -1.67382784e-10 -6.87485503e-07 1.05516899e-03 3.07511768e-10
0.012            -5.26843444e-06 2.69668637e-03 1.39521078e-10 -4.58275074e-06 1.65841339e-03 -1.64386880e-10 -6.85683696e-07 1.03827298e-03 3.03907958e-10
0.0125           -5.41837208e-06 2.69514508e-03 1.48001230e-10 -4.73243347e-06 1.67255264e-03 -1.61365503e-10 -6.85938612e-07 1.02259244e-03 3.09366733e-10
0.013            -5.47650727e-06 2.69469840e-03 1.58680470e-10 -4.79455554e-06 1.68667442e-03 -1.58313856e-10 -6.81951727e-07 1.00802398e-03 3.16994326e-10
0.0135           -5.58571270e-06 2.69557554e-03 1.91769019e-10 -4.89181025e-06 1.70152669e-03 -1.54880161e-10 -6.93902457e-07 9.94048850e-04 3.46649180e-10
0.014            -5.66681355e-06 2.69710104e-03 2.09380579e-10 -4.96076823e-06 1.71612074e-03 -1.51749571e-10 -7.06045314e-07 9.80980303e-04 3.61130149e-10
0.0145           -5.86661488e-06 2.69936403e-03 1.93880403e-10 -5.16173840e-06 1.73041946e-03 -1.50199196e-10 -7.04876478e-07 9.68944562e-04 3.44079599e-10
0.015            -5.82085229e-06 2.70217271e-03 2.18731754e-10 -5.11166648e-06 1.74453039e-03 -1.46023607e-10 -7.09185804e-07 9.57642322e-04 3.64755361e-10
0.0155           -5.82362472e-06 2.70608868e-03 2.32516048e-10 -5.11008917e-06 1.75904635e-03 -1.42869532e-10 -7.13535552e-07 9.47042327e-04 3.75385580e-10
0.016            -5.80067497e-06 2.71059823e-03 2.69053120e-10 -5.07735400e-06 1.77354913e-03 -1.39815575e-10 -7.23320967e-07 9.37049099e-04 4.08868695e-10
0.0165           -5.87895584e-06 2.71569632e-03 2.68718598e-10 -5.15941768e-06 1.78809328e-03 -1.36752991e-10 -7.19538165e-07 9.27603042e-04 4.05471590e-10
0.017            -5.87757309e-06 2.72074033e-03 2.85191351e-10 -5.15412007e-06 1.80203380e-03 -1.33742997e-10 -7.23453024e-07 9.18706532e-04 4.18934348e-10
0.0175           -5.91071833e-06 2.72615772e-03 3.07079869e-10 -5.17673275e-06 1.81592548e-03 -1.30800242e-10 -7.33985584e-07 9.10232245e-04 4.37880111e-10
0.018            -5.74362193e-06 2.73148305e-03 3.35000954e-10 -4.99661963e-06 1.82922200e-03 -1.26910986e-10 -7.47002300e-07 9.02261047e-04 4.61911940e-10
0.0185           -5.93218686e-06 2.73789864e-03 3.39189632e-10 -5.17340777e-06 1.84314871e-03 -1.24676588e-10 -7.58779087e-07 8.94749936e-04 4.63866220e-10
0.019            -6.00614508e-06 2.74435179e-03 3.65634104e-10 -5.23238066e-06 1.85671421e-03 -1.21734030e-10 -7.73764412e-07 8.87637586e-04 4.87368135e-10
0.0195           -5.86433552e-06 2.75059305e-03 3.85210887e-10 -5.09096243e-06 1.86979151e-03 -1.18361153e-10 -7.73373089e-07 8.80801540e-04 5.03572040e-10
0.02             -6.26227563e-06 2.75642157e-03 3.85547968e-10 -5.48876760e-06 1.88216993e-03 -1.15845415e-10 -7.73508033e-07 8.74251640e-04 5.01393382e-10
0.0205           -5.65496710e-06 2.76232536e-03 3.90593400e-10 -4.88354607e-06 1.89421891e-03 -1.12913118e-10 -7.71421033e-07 8.68106458e-04 5.03506518e-10
0.021            -5.00764999e-06 2.76731997e-03 4.42279372e-10 -4.25043669e-06 1.90510940e-03 -1.09849420e-10 -7.57213302e-07 8.62210562e-04 5.52128793e-10
0.0215           -6.13078810e-06 2.77323625e-03 4.67996100e-10 -5.37054200e-06 1.91672628e-03 -1.06963262e-10 -7.60246100e-07 8.56509972e-04 5.74959361e-10
0.022            -4.83595574e-06 2.77988617e-03 4.86570183e-10 -4.07739166e-06 1.92883179e-03 -1.03837018e-10 -7.58564088e-07 8.51054377e-04 5.90407202e-10
0.0225           -4.15408101e-06 2.78623507e-03 5.02616168e-10 -3.41726173e-06 1.94038578e-03 -1.01222627e-10 -7.36819286e-07 8.45849289e-04 6.03838795e-10
0.023            -4.37218824e-06 2.79178467e-03 5.18798560e-10 -3.65656971e-06 1.95092049e-03 -9.77803072e-11 -7.15618528e-07 8.40864185e-04 6.16578867e-10
0.0235           -4.68127684e-06 2.79704562e-03 5.37658420e-10 -3.97191006e-06 1.96097232e-03 -9.75080179e-11 -7.09366788e-07 8.36073307e-04 6.35166438e-10
0.024            -4.05952135e-06 2.80175919e-03 5.79060789e-10 -3.34595050e-06 1.97029442e-03 -9.31394515e-11 -7.13570847e-07 8.31464779e-04 6.72200241e-10
0.0245           -4.16811425e-06 2.80786296e-03 5.96920434e-10 -3.47336271e-06 1.98084241e-03 -9.04185868e-11 -6.94751541e-07 8.27020547e-04 6.87339020e-10
0.025            -4.31434025e-06 2.81250781e-03 5.67900074e-10 -3.65412908e-06 1.98972874e-03 -8.81182964e-11 -6.60211170e-07 8.22779071e-04 6.56018370e-10
0.0255           -3.94014906e-06 2.81734302e-03 5.75589229e-10 -3.28310512e-06 1.99858029e-03 -8.53692024e-11 -6.57043934e-07 8.18762734e-04 6.60958432e-10
0.026            -4.03482611e-06 2.82194598e-03 6.00837698e-10 -3.37836800e-06 2.00702101e-03 -8.29024724e-11 -6.56458115e-07 8.14924974e-04 6.83740170e-10
0.0265           -4.62140014e-06 2.82625865e-03 6.28359369e-10 -3.95548075e-06 2.01502230e-03 -8.07360025e-11 -6.65919386e-07 8.11236352e-04 7.09095371e-10
0.027            -3.96883140e-06 2.83049347e-03 6.61047228e-10 -3.29014259e-06 2.02282124e-03 -7.80833401e-11 -6.78688810e-07 8.07672221e-04 7.39130568e-10
0.0275           -3.72390323e-06 2.83456478e-03 6.82629857e-10 -3.05170615e-06 2.03034330e-03 -7.57360979e-11 -6.72197075e-07 8.04221486e-04 7.58365955e-10
0.028            -3.63372898e-06 2.83820746e-03 7.02651289e-10 -2.96889418e-06 2.03732670e-03 -7.33979664e-11 -6.64834804e-07 8.00880757e-04 7.76049256e-10
0.0285           -3.39609551e-06 2.84145569e-03 7.21379871e-10 -2.73997228e-06 2.04380529e-03 -7.12196095e-11 -6.56123236e-07 7.97650397e-04 7.92599480e-10
0.029            -3.16409042e-06 2.84455723e-03 7.36141972e-10 -2.52622815e-06 2.05003321e-03 -6.91433570e-11 -6.37862268e-07 7.94524027e-04 8.05285329e-10
0.0295           -2.82048901e-06 2.84734969e-03 7.43372315e-10 -2.21259391e-06 2.05586616e-03 -6.67524269e-11 -6.07895096e-07 7.91483532e-04 8.10124742e-10
0.03             -2.71484681e-06 2.84951659e-03 7.56956098e-10 -2.12502411e-06 2.06098276e-03 -6.52464343e-11 -5.89822693e-07 7.88533828e-04 8.22202532e-10
0.0305           -2.52285802e-06 2.85157698e-03 7.70570613e-10 -1.95027456e-06 2.06589613e-03 -6.31356896e-11 -5.72583458e-07 7.85680850e-04 8.33706303e-10
0.031            -2.27084446e-06 2.85354757e-03 7.84702534e-10 -1.71526815e-06 2.07062663e-03 -6.12163253e-11 -5.55576311e-07 7.82920939e-04 8.45918859e-10
0.0315           -2.10753925e-06 2.85507278e-03 7.98566508e-10 -1.56933090e-06 2.07483012e-03 -5.94923659e-11 -5.38208347e-07 7.80242660e-04 8.58058874e-10
0.032            -1.58388700e-06 2.85689223e-03 8.14874503e-10 -1.06680344e-06 2.07924707e-03 -5.65515708e-11 -5.17083557e-07 7.77645166e-04 8.71426074e-10
0.0325           -1.61333574e-06 2.85846555e-03 8.27375816e-10 -1.11761165e-06 2.08333806e-03 -5.58386564e-11 -4.95724090e-07 7.75127497e-04 8.83214473e-10
0.033            -1.29762805e-06 2.85900824e-03 8.39125275e-10 -8.22771398e-07 2.08631957e-03 -5.40279729e-11 -4.74856648e-07 7.72688673e-04 8.93153248e-10
0.0335           -1.10443102e-06 2.86000371e-03 8.53766203e-10 -6.50628728e-07 2.08968493e-03 -5.22924388e-11 -4.53802292e-07 7.70318787e-04 9.06058642e-10
0.034            -8.97216585e-07 2.86028663e-03 8.70515015e-10 -4.63705303e-07 2.09228043e-03 -5.07960637e-11 -4.33511281e-07 7.68006203e-04 9.21311079e-10
0.0345           -6.99406635e-07 2.86071105e-03 8.92340539e-10 -2.86010819e-07 2.09496873e-03 -4.91856714e-11 -4.13395816e-07 7.65742322e-04 9.41526210e-10
0.035            -4.62913505e-07 2.86081112e-03 9.03932764e-10 -7.15443145e-08 2.09727482e-03 -4.76735958e-11 -3.91369190e-07 7.63536303e-04 9.51606360e-10
0.0355           -1.54396396e-07 2.86077095e-03 9.08529815e-10 2.12017053e-07 2.09938091e-03 -4.57902376e-11 -3.66413448e-07 7.61390040e-04 9.54320052e-10
0.036            -4.58654309e-07 2.86024532e-03 9.09035663e-10 -1.13610637e-07 2.10094448e-03 -4.57151948e-11 -3.45043671e-07 7.59300839e-04 9.54750857e-10
0.0365           1.37583362e-07 2.85945278e-03 9.14284443e-10 4.62841396e-07 2.10219201e-03 -4.42690659e-11 -3.25258033e-07 7.57260778e-04 9.58553509e-10
0.037            1.61302089e-07 2.85882393e-03 9.30939420e-10 4.71344206e-07 2.10355436e-03 -4.26016406e-11 -3.10042117e-07 7.55269571e-04 9.73541061e-10
0.0375           4.89382216e-07 2.85788720e-03 9.42975417e-10 7.81478285e-07 2.10456045e-03 -4.09619993e-11 -2.92096069e-07 7.53326752e-04 9.83937417e-10
0.038            7.13754905e-07 2.85707600e-03 9.47546467e-10 9.79877729e-07 2.10564811e-03 -3.99970014e-11 -2.66122823e-07 7.51427883e-04 9.87543468e-10
0.0385           8.83972389e-07 2.85604501e-03 9.55904183e-10 1.12444505e-06 2.10647386e-03 -3.88169788e-11 -2.40472660e-07 7.49571155e-04 9.94721162e-10
0.039            8.82949763e-07 2.85458857e-03 9.65060038e-10 1.10177494e-06 2.10683829e-03 -3.79120702e-11 -2.18825177e-07 7.47750280e-04 1.00297211e-09
0.0395           1.14905525e-06 2.85301555e-03 9.72539950e-10 1.34800493e-06 2.10705335e-03 -3.67248909e-11 -1.98949683e-07 7.45962206e-04 1.00926484e-09
0.04             1.38579285e-06 2.85162751e-03 9.78742079e-10 1.56335153e-06 2.10741757e-03 -3.56100161e-11 -1.77558676e-07 7.44209947e-04 1.01435210e-09
0.0405           1.37128208e-06 2.85006284e-03 9.84300931e-10 1.52951103e-06 2.10756804e-03 -3.46981385e-11 -1.58228950e-07 7.42494798e-04 1.01899907e-09
0.041            1.68209261e-06 2.85005472e-03 9.89633601e-10 1.82111395e-06 2.10922353e-03 -3.34927413e-11 -1.39021343e-07 7.40831189e-04 1.02312634e-09
0.0415           1.91290315e-06 2.84616228e-03 9.93613101e-10 2.03039500e-06 2.10697137e-03 -3.27513669e-11 -1.17491844e-07 7.39190908e-04 1.02636447e-09
0.042            1.82796320e-06 2.84393465e-03 9.88401515e-10 1.91954452e-06 2.10637326e-03 -3.20068422e-11 -9.15813150e-08 7.37561389e-04 1.02040836e-09
0.0425           2.17706340e-06 2.84198460e-03 9.77233174e-10 2.24125053e-06 2.10601612e-03 -3.06400889e-11 -6.41871297e-08 7.35968477e-04 1.00787326e-09
0.043            2.72814162e-06 2.83989599e-03 9.74195847e-10 2.76533436e-06 2.10548681e-03 -2.91859005e-11 -3.71927406e-08 7.34409186e-04 1.00338175e-09
0.0435           2.07426172e-06 2.83803324e-03 9.76645062e-10 2.09727071e-06 2.10515110e-03 -2.93124304e-11 -2.30089911e-08 7.32882141e-04 1.00595749e-09
0.044            2.05967130e-06 2.83772606e-03 9.85203351e-10 2.07912203e-06 2.10632090e-03 -2.82593762e-11 -1.94507285e-08 7.31405161e-04 1.01346273e-09
0.0445           3.02389349e-06 2.83223861e-03 9.93931376e-10 3.02867688e-06 2.10230336e-03 -2.74931679e-11 -4.78339345e-09 7.29935245e-04 1.02142454e-09
0.045            2.74526768e-06 2.82808984e-03 9.99617255e-10 2.73103496e-06 2.09964523e-03 -2.69274138e-11 1.42327259e-08 7.28444613e-04 1.02654467e-09
0.0455           2.96613708e-06 2.82569551e-03 1.00470780e-09 2.93699577e-06 2.09872159e-03 -2.60682092e-11 2.91413116e-08 7.26973919e-04 1.03077601e-09
0.046            2.66941924e-06 2.82300954e-03 1.00712906e-09 2.62846761e-06 2.09747414e-03 -2.58943319e-11 4.09516282e-08 7.25535401e-04 1.03302339e-09
0.0465           3.19756538e-06 2.82010999e-03 1.00917711e-09 3.14302986e-06 2.09598797e-03 -2.48782736e-11 5.45355153e-08 7.24122022e-04 1.03405538e-09
0.047            3.19446216e-06 2.81737588e-03 1.01125109e-09 3.12359025e-06 2.09464360e-03 -2.42571430e-11 7.08719086e-08 7.22732280e-04 1.03550824e-09
0.0475           3.21987159e-06 2.81436599e-03 1.01320986e-09 3.13590534e-06 2.09300203e-03 -2.37348517e-11 8.39662497e-08 7.21363955e-04 1.03694471e-09
0.048            3.45031872e-06 2.81140566e-03 1.01444045e-09 3.35253389e-06 2.09139039e-03 -2.31028788e-11 9.77848301e-08 7.20015271e-04 1.03754333e-09
0.0485           3.38921833e-06 2.80840213e-03 1.01504982e-09 3.27840889e-06 2.08971590e-03 -2.26363580e-11 1.10809441e-07 7.18686233e-04 1.03768618e-09
0.049            3.69014645e-06 2.80533093e-03 1.01505241e-09 3.56563535e-06 2.08795518e-03 -2.20870488e-11 1.24511096e-07 7.17375756e-04 1.03713946e-09
0.0495           3.49626794e-06 2.80224970e-03 1.01473316e-09 3.35965989e-06 2.08616640e-03 -2.16413794e-11 1.36608047e-07 7.16083296e-04 1.03637454e-09
0.05             3.85802087e-06 2.79928071e-03 1.01407641e-09 3.70889842e-06 2.08446992e-03 -2.10371246e-11 1.49122443e-07 7.14810787e-04 1.03511354e-09
0.0505           3.87094021e-06 2.79637749e-03 1.01281857e-09 3.70684236e-06 2.08281743e-03 -2.05617486e-11 1.64097849e-07 7.13560068e-04 1.03338032e-09
0.051            3.89860799e-06 2.79302121e-03 1.01097030e-09 3.72125075e-06 2.08069536e-03 -2.05877404e-11 1.77357238e-07 7.12325843e-04 1.03155804e-09
0.0515           3.92631589e-06 2.78971796e-03 1.00890142e-09 3.73746871e-06 2.07861199e-03 -2.02431285e-11 1.88847182e-07 7.11105971e-04 1.02914455e-09
0.052            4.24863563e-06 2.78623289e-03 1.00699316e-09 4.04617288e-06 2.07633353e-03 -1.96295859e-11 2.02462749e-07 7.09899366e-04 1.02662275e-09
0.0525           3.98844855e-06 2.78279756e-03 1.00494589e-09 3.77428084e-06 2.07409297e-03 -1.94031309e-11 2.14167709e-07 7.08704591e-04 1.02434902e-09
0.053            4.12469147e-06 2.77937634e-03 1.00294895e-09 3.90163521e-06 2.07185283e-03 -1.89895653e-11 2.23056260e-07 7.07523506e-04 1.02193852e-09
0.0535           4.46779917e-06 2.77600268e-03 1.00043616e-09 4.23118964e-06 2.06964600e-03 -1.85561415e-11 2.36609532e-07 7.06356682e-04 1.01899230e-09
0.054            3.91149624e-06 2.77333560e-03 9.97562880e-10 3.66642784e-06 2.06812435e-03 -1.86619820e-11 2.45068400e-07 7.05211251e-04 1.01622486e-09
0.0545           4.23875062e-06 2.76816962e-03 9.95292730e-10 3.98795424e-06 2.06410314e-03 -1.82835549e-11 2.50796373e-07 7.04066476e-04 1.01357629e-09
0.055            4.92964673e-06 2.76503315e-03 9.93267386e-10 4.66230229e-06 2.06210888e-03 -1.77433090e-11 2.67344436e-07 7.02924265e-04 1.01101069e-09
0.0555           5.69256282e-06 2.76080855e-03 9.90729206e-10 5.39678176e-06 2.05901436e-03 -1.72999070e-11 2.95781063e-07 7.01794183e-04 1.00802911e-09
0.056            4.84837773e-06 2.75614346e-03 9.88418705e-10 4.53286554e-06 2.05548266e-03 -1.75223670e-11 3.15512191e-07 7.00660799e-04 1.00594107e-09
0.0565           4.67881001e-06 2.75268840e-03 9.87286506e-10 4.35745170e-06 2.05315259e-03 -1.74139822e-11 3.21358314e-07 6.99535806e-04 1.00470049e-09
0.057            4.36298364e-06 2.75004334e-03 9.84407123e-10 4.03913624e-06 2.05160400e-03 -1.72252512e-11 3.23847393e-07 6.98439338e-04 1.00163237e-09
0.0575           5.26243580e-06 2.74707862e-03 9.79301197e-10 4.92608324e-06 2.04970798e-03 -1.70042942e-11 3.36352566e-07 6.97370642e-04 9.96305491e-10
0.058            4.82066697e-06 2.74353836e-03 9.73691528e-10 4.46884829e-06 2.04722321e-03 -1.68501369e-11 3.51818685e-07 6.96315143e-04 9.90541665e-10
0.0585           4.80674402e-06 2.74041478e-03 9.68823209e-10 4.44706430e-06 2.04514301e-03 -1.66660763e-11 3.59679711e-07 6.95271772e-04 9.85489285e-10
0.059            5.07191838e-06 2.73729977e-03 9.64787836e-10 4.70220867e-06 2.04305496e-03 -1.65495816e-11 3.69709713e-07 6.94244817e-04 9.81337418e-10
0.0595           5.04567797e-06 2.73390299e-03 9.64439271e-10 4.66532713e-06 2.04067532e-03 -1.64305084e-11 3.80350840e-07 6.93227674e-04 9.80869780e-10
0.06             4.88962088e-06 2.73150512e-03 9.64274821e-10 4.50224573e-06 2.03927566e-03 -1.63700607e-11 3.87375149e-07 6.92229462e-04 9.80644881e-10
0.0605           5.15479357e-06 2.72729695e-03 9.63729988e-10 4.75912472e-06 2.03605780e-03 -1.62395745e-11 3.95668853e-07 6.91239153e-04 9.79969562e-10
0.061            5.20169839e-06 2.72411934e-03 9.63011875e-10 4.79515463e-06 2.03386794e-03 -1.60280002e-11 4.06543761e-07 6.90251401e-04 9.79039875e-10
0.0615           5.12960887e-06 2.72095891e-03 9.61949161e-10 4.71395268e-06 2.03168143e-03 -1.59405101e-11 4.15656187e-07 6.89277479e-04 9.77889671e-10
0.062            5.08666021e-06 2.71772494e-03 9.59270705e-10 4.66364202e-06 2.02940987e-03 -1.59090482e-11 4.23018188e-07 6.88315075e-04 9.75179753e-10
0.0625           5.22317037e-06 2.71454055e-03 9.54459644e-10 4.79160722e-06 2.02717776e-03 -1.57063711e-11 4.31563146e-07 6.87362787e-04 9.70166015e-10
0.063            5.26876746e-06 2.71144009e-03 9.49679788e-10 4.82746139e-06 2.02501756e-03 -1.55452374e-11 4.41306075e-07 6.86422529e-04 9.65225025e-10
0.0635           5.25533954e-06 2.70835688e-03 9.45067037e-10 4.80518933e-06 2.02286235e-03 -1.55270839e-11 4.50150213e-07 6.85494528e-04 9.60594120e-10
0.064            5.35711988e-06 2.70541151e-03 9.41198317e-10 4.89802994e-06 2.02083228e-03 -1.53599775e-11 4.59089934e-07 6.84579225e-04 9.56558294e-10
0.0645           5.29898303e-06 2.70273676e-03 9.38136130e-10 4.83164851e-06 2.01905748e-03 -1.52756297e-11 4.67334524e-07 6.83679289e-04 9.53411759e-10
0.065            5.49104422e-06 2.69989235e-03 9.34982280e-10 5.01481383e-06 2.01709825e-03 -1.51158889e-11 4.76230392e-07 6.82794098e-04 9.50098169e-10
0.0655           5.21633480e-06 2.69590244e-03 9.31723757e-10 4.73354507e-06 2.01399320e-03 -1.51205416e-11 4.82789727e-07 6.81909235e-04 9.46844298e-10
0.066            5.24314242e-06 2.69310429e-03 9.28838294e-10 4.75667005e-06 2.01207564e-03 -1.49677622e-11 4.86472374e-07 6.81028654e-04 9.43806057e-10
0.0665           5.26112020e-06 2.68997624e-03 9.25006359e-10 4.76997079e-06 2.00981578e-03 -1.48554663e-11 4.91149405e-07 6.80160455e-04 9.39861826e-10
0.067            5.76919493e-06 2.68600429e-03 9.20565998e-10 5.26739918e-06 2.00671206e-03 -1.45351007e-11 5.01795757e-07 6.79292226e-04 9.35101099e-10
0.0675           5.18851842e-06 2.68247069e-03 9.15957185e-10 4.67938649e-06 2.00404782e-03 -1.46872036e-11 5.09131931e-07 6.78422867e-04 9.30644389e-10
0.068            5.26984413e-06 2.67867729e-03 9.12246074e-10 4.75916832e-06 2.00112158e-03 -1.45976088e-11 5.10675815e-07 6.77555719e-04 9.26843683e-10
0.0685           5.35715702e-06 2.67571657e-03 9.08264885e-10 4.84203590e-06 1.99901906e-03 -1.44486872e-11 5.15121115e-07 6.76697503e-04 9.22713572e-10
0.069            5.39267876e-06 2.67280931e-03 9.03509968e-10 4.87171115e-06 1.99695425e-03 -1.43611812e-11 5.20967611e-07 6.75855063e-04 9.17871149e-10
0.0695           5.48639372e-06 2.66981624e-03 8.98378133e-10 4.95841695e-06 1.99479083e-03 -1.41862734e-11 5.27976771e-07 6.75025405e-04 9.12564406e-10
0.07             5.54262281e-06 2.66688452e-03 8.92916142e-10 5.00670581e-06 1.99267797e-03 -1.40578021e-11 5.35917003e-07 6.74206551e-04 9.06973944e-10
0.0705           5.63253353e-06 2.66404027e-03 8.87046201e-10 5.08804804e-06 1.99064171e-03 -1.39326909e-11 5.44485496e-07 6.73398559e-04 9.00978892e-10
0.071            5.51342499e-06 2.66104827e-03 8.80911923e-10 4.96185801e-06 1.98844828e-03 -1.39661581e-11 5.51566982e-07 6.72599996e-04 8.94878081e-10
0.0715           5.40978927e-06 2.65811663e-03 8.74725380e-10 4.85404483e-06 1.98630703e-03 -1.40347374e-11 5.55744438e-07 6.71809597e-04 8.88760117e-10
0.072            5.52686919e-06 2.65523695e-03 8.68341956e-10 4.96637671e-06 1.98420889e-03 -1.38340805e-11 5.60492479e-07 6.71028056e-04 8.82176036e-10
0.0725           5.59414272e-06 2.65232742e-03 8.62030281e-10 5.02697955e-06 1.98207265e-03 -1.36481762e-11 5.67163176e-07 6.70254772e-04 8.75678457e-10
0.073            5.57248307e-06 2.64954176e-03 8.55667504e-10 4.99885586e-06 1.98005172e-03 -1.36155339e-11 5.73627206e-07 6.69490043e-04 8.69283038e-10
0.0735           5.48823232e-06 2.64658046e-03 8.49827451e-10 4.90987611e-06 1.97784762e-03 -1.35344293e-11 5.78356205e-07 6.68732836e-04 8.63361880e-10
0.074            5.57572127e-06 2.64370954e-03 8.44364379e-10 4.99260735e-06 1.97572736e-03 -1.33780998e-11 5.83113921e-07 6.67982175e-04 8.57742479e-10
0.0745           5.48875249e-06 2.64093493e-03 8.38681938e-10 4.90117180e-06 1.97369559e-03 -1.33458312e-11 5.87580693e-07 6.67239337e-04 8.52027769e-10
0.075            5.65263936e-06 2.63819313e-03 8.32491696e-10 5.05964278e-06 1.97168824e-03 -1.32891822e-11 5.92996582e-07 6.66504890e-04 8.45780878e-10
0.0755           5.56352870e-06 2.63566950e-03 8.26298339e-10 4.96489878e-06 1.96988934e-03 -1.31712035e-11 5.98629930e-07 6.65780167e-04 8.39469543e-10
0.076            5.60340028e-06 2.63294930e-03 8.20120090e-10 5.00016002e-06 1.96788509e-03 -1.31315946e-11 6.03240267e-07 6.65064206e-04 8.33251685e-10
0.0765           5.17609573e-06 2.63068723e-03 8.14000289e-10 4.57290538e-06 1.96632796e-03 -1.32459796e-11 6.03190344e-07 6.64359270e-04 8.27246269e-10
0.077            5.36436362e-06 2.62788871e-03 8.08193070e-10 4.76222566e-06 1.96422613e-03 -1.30500594e-11 6.02137956e-07 6.63662583e-04 8.21243130e-10
0.0775           5.01977771e-06 2.62510204e-03 8.01773768e-10 4.41930134e-06 1.96213335e-03 -1.32342044e-11 6.00476365e-07 6.62968693e-04 8.15007972e-10
0.078            5.35211100e-06 2.62211788e-03 7.95555460e-10 4.75175897e-06 1.95984082e-03 -1.29764314e-11 6.00352034e-07 6.62277057e-04 8.08531891e-10
0.0785           5.28281021e-06 2.61960686e-03 7.88874543e-10 4.67931664e-06 1.95801559e-03 -1.29477319e-11 6.03493568e-07 6.61591268e-04 8.01822275e-10
0.079            5.25729954e-06 2.61712950e-03 7.83137879e-10 4.65212340e-06 1.95621455e-03 -1.27936326e-11 6.05176141e-07 6.60914949e-04 7.95931512e-10
0.0795           5.20446083e-06 2.61472208e-03 7.77433882e-10 4.59825623e-06 1.95447371e-03 -1.27439474e-11 6.06204597e-07 6.60248369e-04 7.90177830e-10
0.08             5.45278091e-06 2.61163246e-03 7.71477672e-10 4.84279541e-06 1.95204861e-03 -1.25306614e-11 6.09985503e-07 6.59583848e-04 7.84008334e-10
0.0805           5.39500219e-06 2.60948318e-03 7.65303886e-10 4.77988062e-06 1.95055776e-03 -1.24758363e-11 6.15121571e-07 6.58925422e-04 7.77779722e-10
0.081            4.90596499e-06 2.60669877e-03 7.59256732e-10 4.29275386e-06 1.94842442e-03 -1.27312965e-11 6.13211124e-07 6.58274348e-04 7.71988029e-10
0.0815           4.84028463e-06 2.60340634e-03 7.53514207e-10 4.23327044e-06 1.94578638e-03 -1.27471736e-11 6.07014188e-07 6.57619958e-04 7.66261381e-10
0.082            4.80035117e-06 2.60109426e-03 7.47537680e-10 4.19790044e-06 1.94412447e-03 -1.26676340e-11 6.02450732e-07 6.56969788e-04 7.60205314e-10
0.0825           4.69887743e-06 2.59883942e-03 7.41226457e-10 4.10065801e-06 1.94250730e-03 -1.26529626e-11 5.98219414e-07 6.56332121e-04 7.53879420e-10
0.083            4.58183089e-06 2.59660241e-03 7.34741450e-10 3.98870451e-06 1.94089705e-03 -1.26486311e-11 5.93126377e-07 6.55705356e-04 7.47390081e-10
0.0835           4.43435912e-06 2.59428306e-03 7.27734296e-10 3.84748563e-06 1.93919625e-03 -1.26573650e-11 5.86873484e-07 6.55086807e-04 7.40391661e-10
0.084            4.33298184e-06 2.59191252e-03 7.20737784e-10 3.75303793e-06 1.93743802e-03 -1.26285541e-11 5.79943907e-07 6.54474499e-04 7.33366338e-10
0.0845           4.28073085e-06 2.58950695e-03 7.13743316e-10 3.70728842e-06 1.93563979e-03 -1.25666594e-11 5.73442429e-07 6.53867162e-04 7.26309976e-10
0.085            4.19603970e-06 2.58712201e-03 7.06748565e-10 3.62881797e-06 1.93385745e-03 -1.25382888e-11 5.67221733e-07 6.53264562e-04 7.19286854e-10
0.0855           4.10538112e-06 2.58474495e-03 7.00111086e-10 3.54511766e-06 1.93207790e-03 -1.25186722e-11 5.60263457e-07 6.52667055e-04 7.12629758e-10
0.086            4.05047586e-06 2.58243553e-03 6.93800397e-10 3.49763853e-06 1.93036009e-03 -1.24759496e-11 5.52837326e-07 6.52075437e-04 7.06276346e-10
0.0865           3.93836078e-06 2.58013046e-03 6.87372959e-10 3.39324010e-06 1.92864075e-03 -1.24533974e-11 5.45120679e-07 6.51489709e-04 6.99826357e-10
0.087            3.81706058e-06 2.57782836e-03 6.80783708e-10 3.28047953e-06 1.92691912e-03 -1.24353700e-11 5.36581048e-07 6.50909243e-04 6.93219078e-10
0.0875           3.65925134e-06 2.57553764e-03 6.73966411e-10 3.13229298e-06 1.92520373e-03 -1.24374937e-11 5.26958360e-07 6.50333916e-04 6.86403905e-10
0.088            3.49447127e-06 2.57325014e-03 6.66427963e-10 2.97786911e-06 1.92348655e-03 -1.25177941e-11 5.16602151e-07 6.49763588e-04 6.78945757e-10
0.0885           3.34303955e-06 2.57107004e-03 6.58278714e-10 2.83699149e-06 1.92187106e-03 -1.25498586e-11 5.06048062e-07 6.49198977e-04 6.70828573e-10
0.089            3.27326765e-06 2.56913293e-03 6.50450444e-10 2.77745895e-06 1.92049023e-03 -1.24389413e-11 4.95808696e-07 6.48642699e-04 6.62889386e-10
0.0895           3.06786383e-06 2.56650768e-03 6.42651880e-10 2.58293689e-06 1.91841846e-03 -1.25173288e-11 4.84926942e-07 6.48089221e-04 6.55169209e-10
0.09             2.95716533e-06 2.56432742e-03 6.34981030e-10 2.48394020e-06 1.91679038e-03 -1.24969817e-11 4.73225131e-07 6.47537044e-04 6.47478012e-10
0.0905           2.75751318e-06 2.56183755e-03 6.27241739e-10 2.29661612e-06 1.91485023e-03 -1.25489267e-11 4.60897062e-07 6.46987321e-04 6.39790666e-10
0.091            2.60377816e-06 2.55968782e-03 6.19166698e-10 2.15553786e-06 1.91324692e-03 -1.25545876e-11 4.48240305e-07 6.46440906e-04 6.31721286e-10
0.0915           2.45533786e-06 2.55756303e-03 6.11906223e-10 2.02052920e-06 1.91166194e-03 -1.25509876e-11 4.34808666e-07 6.45901086e-04 6.24457210e-10
0.092            2.31267509e-06 2.55544666e-03 6.04843872e-10 1.89140730e-06 1.91007938e-03 -1.25376393e-11 4.21267787e-07 6.45367282e-04 6.17381511e-10
0.0925           2.15533895e-06 2.55340477e-03 5.97884657e-10 1.74782721e-06 1.90856518e-03 -1.25180633e-11 4.07511743e-07 6.44839597e-04 6.10402720e-10
0.093            1.94015480e-06 2.55138332e-03 5.91117479e-10 1.54809651e-06 1.90706411e-03 -1.25543848e-11 3.92058297e-07 6.44319208e-04 6.03671864e-10
0.0935           1.88361074e-06 2.54917310e-03 5.84090257e-10 1.50683511e-06 1.90537010e-03 -1.24773766e-11 3.76775622e-07 6.43802998e-04 5.96567634e-10
0.094            1.81077854e-06 2.54686664e-03 5.76876415e-10 1.44773006e-06 1.90357938e-03 -1.24445066e-11 3.63048480e-07 6.43287263e-04 5.89320922e-10
0.0945           1.69199482e-06 2.54495613e-03 5.69746954e-10 1.34230089e-06 1.90218005e-03 -1.24220904e-11 3.49693924e-07 6.42776077e-04 5.82169045e-10
0.095            1.41658062e-06 2.54258783e-03 5.62862505e-10 1.08228668e-06 1.90031991e-03 -1.24986789e-11 3.34293936e-07 6.42267924e-04 5.75361184e-10
0.0955           1.23255993e-06 2.54050849e-03 5.56234176e-10 9.15595420e-07 1.89874702e-03 -1.25283768e-11 3.16964511e-07 6.41761473e-04 5.68762553e-10
0.096            1.07987460e-06 2.53851239e-03 5.49577942e-10 7.80266611e-07 1.89725190e-03 -1.25358219e-11 2.99607994e-07 6.41260486e-04 5.62113764e-10
0.0965           9.49023096e-07 2.53651627e-03 5.42311135e-10 6.65861803e-07 1.89575146e-03 -1.25190017e-11 2.83161294e-07 6.40764808e-04 5.54830137e-10