# Region type : patch jet2
# Faces         : 17
# Area          : 3.90575132e-04
# Scale factor  : 1.00000000e+00
# Time          	sum(phi)
0.05            	0.00000000e+00
