# Probe 0 (0.075 0 0)
# Probe 1 (0.073860581 0.013023613 0)
# Probe 2 (0.070476947 0.025651511 0)
# Probe 3 (0.064951905 0.0375 0)
# Probe 4 (0.057453333 0.048209071 0)
# Probe 5 (0.048209071 0.057453333 0)
# Probe 6 (0.0375 0.064951905 0)
# Probe 7 (0.025651511 0.070476947 0)
# Probe 8 (0.013023613 0.073860581 0)
# Probe 9 (0 0.075 0)
# Probe 10 (-0.013023613 0.073860581 0)
# Probe 11 (-0.025651511 0.070476947 0)
# Probe 12 (-0.0375 0.064951905 0)
# Probe 13 (-0.048209071 0.057453333 0)
# Probe 14 (-0.057453333 0.048209071 0)
# Probe 15 (-0.064951905 0.0375 0)
# Probe 16 (-0.070476947 0.025651511 0)
# Probe 17 (-0.073860581 0.013023613 0)
# Probe 18 (-0.075 0 0)
# Probe 19 (-0.073860581 -0.013023613 0)
# Probe 20 (-0.070476947 -0.025651511 0)
# Probe 21 (-0.064951905 -0.0375 0)
# Probe 22 (-0.057453333 -0.048209071 0)
# Probe 23 (-0.048209071 -0.057453333 0)
# Probe 24 (-0.0375 -0.064951905 0)
# Probe 25 (-0.025651511 -0.070476947 0)
# Probe 26 (-0.013023613 -0.073860581 0)
# Probe 27 (0 -0.075 0)
# Probe 28 (0.013023613 -0.073860581 0)
# Probe 29 (0.025651511 -0.070476947 0)
# Probe 30 (0.0375 -0.064951905 0)
# Probe 31 (0.048209071 -0.057453333 0)
# Probe 32 (0.057453333 -0.048209071 0)
# Probe 33 (0.064951905 -0.0375 0)
# Probe 34 (0.070476947 -0.025651511 0)
# Probe 35 (0.073860581 -0.013023613 0)
# Probe 36 (0.1 0 0)
# Probe 37 (0.098480775 0.017364818 0)
# Probe 38 (0.093969262 0.034202014 0)
# Probe 39 (0.08660254 0.05 0)
# Probe 40 (0.076604444 0.064278761 0)
# Probe 41 (0.064278761 0.076604444 0)
# Probe 42 (0.05 0.08660254 0)
# Probe 43 (0.034202014 0.093969262 0)
# Probe 44 (0.017364818 0.098480775 0)
# Probe 45 (0 0.1 0)
# Probe 46 (-0.017364818 0.098480775 0)
# Probe 47 (-0.034202014 0.093969262 0)
# Probe 48 (-0.05 0.08660254 0)
# Probe 49 (-0.064278761 0.076604444 0)
# Probe 50 (-0.076604444 0.064278761 0)
# Probe 51 (-0.08660254 0.05 0)
# Probe 52 (-0.093969262 0.034202014 0)
# Probe 53 (-0.098480775 0.017364818 0)
# Probe 54 (-0.1 0 0)
# Probe 55 (-0.098480775 -0.017364818 0)
# Probe 56 (-0.093969262 -0.034202014 0)
# Probe 57 (-0.08660254 -0.05 0)
# Probe 58 (-0.076604444 -0.064278761 0)
# Probe 59 (-0.064278761 -0.076604444 0)
# Probe 60 (-0.05 -0.08660254 0)
# Probe 61 (-0.034202014 -0.093969262 0)
# Probe 62 (-0.017364818 -0.098480775 0)
# Probe 63 (0 -0.1 0)
# Probe 64 (0.017364818 -0.098480775 0)
# Probe 65 (0.034202014 -0.093969262 0)
# Probe 66 (0.05 -0.08660254 0)
# Probe 67 (0.064278761 -0.076604444 0)
# Probe 68 (0.076604444 -0.064278761 0)
# Probe 69 (0.08660254 -0.05 0)
# Probe 70 (0.093969262 -0.034202014 0)
# Probe 71 (0.098480775 -0.017364818 0)
# Probe 72 (-0.025 -0.15 0)
# Probe 73 (0 -0.15 0)
# Probe 74 (0.025 -0.15 0)
# Probe 75 (0.05 -0.15 0)
# Probe 76 (0.075 -0.15 0)
# Probe 77 (0.1 -0.15 0)
# Probe 78 (-0.025 -0.1 0)
# Probe 79 (0 -0.1 0)
# Probe 80 (0.025 -0.1 0)
# Probe 81 (0.05 -0.1 0)
# Probe 82 (0.075 -0.1 0)
# Probe 83 (0.1 -0.1 0)
# Probe 84 (0.075 -0.05 0)
# Probe 85 (0.1 -0.05 0)
# Probe 86 (0.075 0 0)
# Probe 87 (0.1 0 0)
# Probe 88 (0.075 0.05 0)
# Probe 89 (0.1 0.05 0)
# Probe 90 (-0.025 0.1 0)
# Probe 91 (0 0.1 0)
# Probe 92 (0.025 0.1 0)
# Probe 93 (0.05 0.1 0)
# Probe 94 (0.075 0.1 0)
# Probe 95 (0.1 0.1 0)
# Probe 96 (-0.025 0.15 0)
# Probe 97 (0 0.15 0)
# Probe 98 (0.025 0.15 0)
# Probe 99 (0.05 0.15 0)
# Probe 100 (0.075 0.15 0)
# Probe 101 (0.1 0.15 0)
# Probe 102 (0.15 -0.15 0)
# Probe 103 (0.2 -0.15 0)
# Probe 104 (0.25 -0.15 0)
# Probe 105 (0.3 -0.15 0)
# Probe 106 (0.35 -0.15 0)
# Probe 107 (0.4 -0.15 0)
# Probe 108 (0.45 -0.15 0)
# Probe 109 (0.15 -0.1 0)
# Probe 110 (0.2 -0.1 0)
# Probe 111 (0.25 -0.1 0)
# Probe 112 (0.3 -0.1 0)
# Probe 113 (0.35 -0.1 0)
# Probe 114 (0.4 -0.1 0)
# Probe 115 (0.45 -0.1 0)
# Probe 116 (0.15 -0.05 0)
# Probe 117 (0.2 -0.05 0)
# Probe 118 (0.25 -0.05 0)
# Probe 119 (0.3 -0.05 0)
# Probe 120 (0.35 -0.05 0)
# Probe 121 (0.4 -0.05 0)
# Probe 122 (0.45 -0.05 0)
# Probe 123 (0.15 0 0)
# Probe 124 (0.2 0 0)
# Probe 125 (0.25 0 0)
# Probe 126 (0.3 0 0)
# Probe 127 (0.35 0 0)
# Probe 128 (0.4 0 0)
# Probe 129 (0.45 0 0)
# Probe 130 (0.15 0.05 0)
# Probe 131 (0.2 0.05 0)
# Probe 132 (0.25 0.05 0)
# Probe 133 (0.3 0.05 0)
# Probe 134 (0.35 0.05 0)
# Probe 135 (0.4 0.05 0)
# Probe 136 (0.45 0.05 0)
# Probe 137 (0.15 0.1 0)
# Probe 138 (0.2 0.1 0)
# Probe 139 (0.25 0.1 0)
# Probe 140 (0.3 0.1 0)
# Probe 141 (0.35 0.1 0)
# Probe 142 (0.4 0.1 0)
# Probe 143 (0.45 0.1 0)
# Probe 144 (0.15 0.15 0)
# Probe 145 (0.2 0.15 0)
# Probe 146 (0.25 0.15 0)
# Probe 147 (0.3 0.15 0)
# Probe 148 (0.35 0.15 0)
# Probe 149 (0.4 0.15 0)
# Probe 150 (0.45 0.15 0)
#         Probe               0               1               2               3               4               5               6               7               8               9              10              11              12              13              14              15              16              17              18              19              20              21              22              23              24              25              26              27              28              29              30              31              32              33              34              35              36              37              38              39              40              41              42              43              44              45              46              47              48              49              50              51              52              53              54              55              56              57              58              59              60              61              62              63              64              65              66              67              68              69              70              71              72              73              74              75              76              77              78              79              80              81              82              83              84              85              86              87              88              89              90              91              92              93              94              95              96              97              98              99             100             101             102             103             104             105             106             107             108             109             110             111             112             113             114             115             116             117             118             119             120             121             122             123             124             125             126             127             128             129             130             131             132             133             134             135             136             137             138             139             140             141             142             143             144             145             146             147             148             149             150
#          Time
           0.05     -0.53248584     -0.38228639      -0.2826675     -0.22545841     -0.22596569     -0.24404956     -0.26394283     -0.28017569     -0.23789505     -0.21690549     -0.16523421   -0.0047988682      0.19601564      0.46241992       0.7700778       1.1631782       1.4233258       1.5722685       1.6404771       1.5189111       1.2767522      0.98053474      0.58988883      0.21883248     -0.14230183     -0.38858599     -0.51847712     -0.66882371     -0.71757967     -0.74575798     -0.75780608     -0.73899597     -0.73496673     -0.75313612     -0.75550611      -0.6724323     -0.57864263     -0.32672291     -0.17146145     -0.11600377     -0.11126439     -0.11925105    -0.070734569  -0.00021162035     0.058303824      0.13760409      0.21487482       0.2973715      0.44516518      0.57911961      0.79255051      0.98245026       1.1001509       1.2367792       1.2597493       1.1890523       1.0673063        0.854058      0.59448853      0.40259636      0.23896255     0.061674782    -0.031570564     -0.20022949     -0.31806383     -0.38888803     -0.52284767     -0.61261984     -0.79640775     -0.86829024     -0.89341628     -0.81117332      0.19006658      0.10657931     0.030993347    -0.010078776    -0.051038846    -0.050571686    -0.041442516     -0.20022949     -0.33567285     -0.35105216     -0.34980163     -0.33629585     -0.82710921     -0.89730575     -0.53248584     -0.57864263     -0.15183693    -0.085155063      0.26822067      0.13760409     0.061301542     0.020505879     0.022173867     0.037265955      0.42120997      0.36783104      0.32932734      0.26557163      0.23691367      0.22583878   -0.0045084183      0.12490169      0.21537143      0.30547268      0.30951391      0.21950341      0.15517681    -0.079399562      0.20203239      0.33238083        0.316514      0.27118363       0.2046932      0.13417139     -0.34273055      0.27626507      0.31400748       0.3801623       0.2235237     0.088689393      0.10774358     -0.38691675     -0.34080982    -0.039155405      0.16025535      0.11415128  -0.00031107716     0.093457029     -0.24053258     -0.43776161     -0.17160534     0.091067327      0.11438231     0.038296225      0.11409139    0.0022259473    -0.023728325    0.0016600953     0.071020421      0.10387964      0.12924425      0.18020618      0.16664908      0.12555692     0.082451945     0.049105539     0.066307562      0.13526509      0.20326311
